                         Program Version 4.2.0 -  RELEASE  -
|  1> ! engrad MP2 def2-TZVP TightSCF FrozenCore
|  2> %pal nprocs 24 end
|  3>
|  4> %maxcore 8000
|  5>
|  6> %scf    ConvForced true end
|  7> *xyz 0 1
|  8> O   0.1320790191898653 -4.019752561762581 -0.8481050599973003
|  9> H   -0.4445053406567157 -3.2403817452233348 -0.9886641272468153
| 10> H   0.9555021147712474 -3.8605198101404983 -0.44899247690392147
| 11> O   -1.9160860427075965 -0.6724890263033754 -1.249787888794054
| 12> H   -2.1929869609948343 -0.42103059992105635 -2.109838926119379
| 13> H   -2.2491974460783255 -0.017389097017336205 -0.627172809647723
| 14> O   -2.2534225600721163 1.6301547235633347 0.39337599805930334
| 15> H   -1.2567170110022814 1.9772759030893436 0.3540903219436833
| 16> H   -2.8490618367154066 2.29453258521095 0.692040085164666
| 17> O   2.823583807627032 0.7754422574894602 1.5792319513374902
| 18> H   2.1712600505330553 0.1489125642527811 1.277892082870141
| 19> H   2.8031511027306224 0.5647218673513285 2.5306513096264935
| 20> O   0.774486851503054 -0.38079166934210007 -0.3532260993197694
| 21> H   -0.0028094629346407628 -0.7367003767555724 -0.6904951748957249
| 22> H   1.4419048571812263 -0.6669733846526731 -0.9623860072749576
| 23> O   0.4481501853409853 2.493049018815455 0.5368915170962032
| 24> H   0.9059769985009217 3.0671309179662813 1.1586887185625916
| 25> H   1.1358062355965686 1.843203977373287 0.34894972570490435
| 26> *
| 27>
| 28>                          ****END OF INPUT****

CARTESIAN COORDINATES (ANGSTROEM)
---------------------------------
  O      0.132079   -4.019753   -0.848105
  H     -0.444505   -3.240382   -0.988664
  H      0.955502   -3.860520   -0.448992
  O     -1.916086   -0.672489   -1.249788
  H     -2.192987   -0.421031   -2.109839
  H     -2.249197   -0.017389   -0.627173
  O     -2.253423    1.630155    0.393376
  H     -1.256717    1.977276    0.354090
  H     -2.849062    2.294533    0.692040
  O      2.823584    0.775442    1.579232
  H      2.171260    0.148913    1.277892
  H      2.803151    0.564722    2.530651
  O      0.774487   -0.380792   -0.353226
  H     -0.002809   -0.736700   -0.690495
  H      1.441905   -0.666973   -0.962386
  O      0.448150    2.493049    0.536892
  H      0.905977    3.067131    1.158689
  H      1.135806    1.843204    0.348950

 Total Charge           Charge          ....    0
 Multiplicity           Mult            ....    1
 Number of Electrons    NEL             ....   60
 Basis Dimension        Dim             ....  258

ORBITAL ENERGIES
----------------

  NO   OCC          E(Eh)            E(eV)
   0   2.0000     -20.569390      -559.7216
   1   2.0000     -20.568852      -559.7069
   2   2.0000     -20.563463      -559.5603
   3   2.0000     -20.551925      -559.2463
   4   2.0000     -20.545583      -559.0737
   5   2.0000     -20.544252      -559.0375
   6   2.0000      -1.376117       -37.4461
   7   2.0000      -1.361356       -37.0444
   8   2.0000      -1.356182       -36.9036
   9   2.0000      -1.349807       -36.7301
  10   2.0000      -1.336191       -36.3596
  11   2.0000      -1.315897       -35.8074
  12   2.0000      -0.745992       -20.2995
  13   2.0000      -0.730567       -19.8797
  14   2.0000      -0.727560       -19.7979
  15   2.0000      -0.718987       -19.5646
  16   2.0000      -0.706873       -19.2350
  17   2.0000      -0.699621       -19.0377
  18   2.0000      -0.616059       -16.7638
  19   2.0000      -0.611193       -16.6314
  20   2.0000      -0.594579       -16.1793
  21   2.0000      -0.582519       -15.8511
  22   2.0000      -0.551973       -15.0200
  23   2.0000      -0.541556       -14.7365
  24   2.0000      -0.524748       -14.2791
  25   2.0000      -0.519854       -14.1459
  26   2.0000      -0.512387       -13.9428
  27   2.0000      -0.504729       -13.7344
  28   2.0000      -0.497317       -13.5327
  29   2.0000      -0.489665       -13.3245
  30   0.0000       0.104000         2.8300
  31   0.0000       0.132491         3.6053
  32   0.0000       0.142778         3.8852
  33   0.0000       0.165085         4.4922
  34   0.0000       0.178928         4.8689

MULLIKEN ATOMIC CHARGES
-----------------------
   0 O :   -0.703716
   1 H :    0.366001
   2 H :    0.337090
   3 O :   -0.732408
   4 H :    0.341952
   5 H :    0.398633
   6 O :   -0.769829
   7 H :    0.417689
   8 H :    0.340380
   9 O :   -0.680975
  10 H :    0.341362
  11 H :    0.333734
  12 O :   -0.691649
  13 H :    0.346511
  14 H :    0.336977
  15 O :   -0.694666
  16 H :    0.344130
  17 H :    0.368785
Sum of atomic charges:   -0.0000000

LOEWDIN ATOMIC CHARGES
----------------------
   0 O :   -0.313182
   1 H :    0.174145
   2 H :    0.134356
   3 O :   -0.296686
   4 H :    0.144176
   5 H :    0.156135
   6 O :   -0.368856
   7 H :    0.210340
   8 H :    0.138619
   9 O :   -0.319946
  10 H :    0.144194
  11 H :    0.170428
  12 O :   -0.270870
  13 H :    0.113727
  14 H :    0.151057
  15 O :   -0.289084
  16 H :    0.163718
  17 H :    0.157728

  Mayer bond orders larger than 0.100000
B(  0-O ,  1-H ) :   0.8283 B(  0-O ,  2-H ) :   0.8558 B(  3-O ,  4-H ) :   0.8532
B(  3-O ,  5-H ) :   0.7882 B(  6-O ,  7-H ) :   0.7458 B(  6-O ,  8-H ) :   0.8521
B(  9-O , 10-H ) :   0.8360 B(  9-O , 11-H ) :   0.8533 B( 12-O , 13-H ) :   0.8283
B( 12-O , 14-H ) :   0.8523 B( 15-O , 16-H ) :   0.8470 B( 15-O , 17-H ) :   0.8186

MP2 TOTAL ENERGY:     -457.913997904 Eh
FINAL SINGLE POINT ENERGY      -457.913997903754

DIPOLE MOMENT
-------------
                                X             Y             Z
Electronic contribution:      0.00060       0.05916      -0.01600
Nuclear contribution   :      0.33356       1.08337       0.34793
                        -----------------------------------------
Total Dipole Moment    :      0.33416       1.14252       0.33193
                        -----------------------------------------
Magnitude (a.u.)       :      1.23580
Magnitude (Debye)      :      3.14115

Rotational constants in cm-1:     0.045469     0.031114     0.019416
Rotational constants in MHz :  1363.129345   932.780994   582.079311

                             ****ORCA TERMINATED NORMALLY****
TOTAL RUN TIME: 0 days 0 hours 0 minutes 26 seconds 132 msec
