                         Program Version 4.2.0 -  RELEASE  -
|  1> ! engrad MP2 def2-TZVP TightSCF FrozenCore
|  2> %pal nprocs 24 end
|  3>
|  4> %maxcore 8000
|  5>
|  6> %scf    ConvForced true end
|  7> *xyz 0 1
|  8> O   -1.351094339878829 0.2953023025911181 1.950015681796117
|  9> H   -1.0782088981911921 1.1079624401148174 1.6170555040908758
| 10> C   -2.681753811959076 0.1290074838809651 1.3702713923110705
| 11> H   -2.6886280054600387 -0.4743727414747135 0.4280463350094949
| 12> H   -3.1006465075003824 1.0811611164831578 1.1253496349598988
| 13> H   -3.486125665048651 -0.30458166123444574 2.04666503532604
| 14> O   -0.9323855607517205 -2.613982241623974 -0.6250947216807019
| 15> H   -0.9949082216905104 -2.6706517738222013 0.29597240343442766
| 16> C   -0.4093849516931407 -3.825046165778461 -1.1769464605795696
| 17> H   0.18478291518555093 -4.328722230037332 -0.4194685644540573
| 18> H   0.15599910830914662 -3.481431342675159 -2.0389171176024017
| 19> H   -1.218391336694515 -4.526496032733969 -1.4194877017088627
| 20> O   1.706060579314433 1.7951844372214527 -0.6317217295281647
| 21> H   0.9830998441385144 1.125703751980046 -0.5282096790933922
| 22> C   1.1513754486227366 2.892793861989987 -1.316756520632332
| 23> H   0.3931519382103387 2.5365046699775675 -2.0472518316934587
| 24> H   1.9166790270710838 3.4809330649036183 -1.7564759201072073
| 25> H   0.5840690444896038 3.5112069030867117 -0.6373990163638565
| 26> O   -0.020242728107723096 -0.14848651923245326 -1.466411561322242
| 27> H   -0.21202269328899426 -1.0338161119412315 -1.1758519248461983
| 28> C   0.6913917065687338 -0.1918104879747557 -2.6573999286022545
| 29> H   1.703514477515624 -0.490715400743633 -2.521795008309846
| 30> H   0.8160909868224292 0.6809204157153331 -3.3226179885660265
| 31> H   0.266872222624285 -0.8805966744053165 -3.390435440995875
| 32> O   0.918590525349852 1.7138251070156545 1.9434385444522113
| 33> H   1.8228103930501651 1.8484370909239474 1.6091879571844832
| 34> C   0.9439785982732298 1.3003892878035574 3.312501360084639
| 35> H   1.2343004333677168 2.098783418343618 3.9390530390838565
| 36> H   1.6291436426136117 0.37376798957183655 3.412300423232778
| 37> H   -0.0569679540740599 1.007464761730025 3.5096549363666236
| 38> O   -0.821517606744802 -2.3769151558756385 2.0251442137332285
| 39> H   -0.6553781813727595 -1.4219542245627705 2.0887880083873505
| 40> C   0.294838501617959 -3.143608442784531 2.4554128983431545
| 41> H   -0.08478543798313906 -4.021582541527181 2.933974780581019
| 42> H   0.8949819739830153 -2.5913306446810673 3.143251222441
| 43> H   0.9579362663059743 -3.4747907801879045 1.6658112637555678
| 44> *
| 45>
| 46>                          ****END OF INPUT****

CARTESIAN COORDINATES (ANGSTROEM)
---------------------------------
  O     -1.351094    0.295302    1.950016
  H     -1.078209    1.107962    1.617056
  C     -2.681754    0.129007    1.370271
  H     -2.688628   -0.474373    0.428046
  H     -3.100647    1.081161    1.125350
  H     -3.486126   -0.304582    2.046665
  O     -0.932386   -2.613982   -0.625095
  H     -0.994908   -2.670652    0.295972
  C     -0.409385   -3.825046   -1.176946
  H      0.184783   -4.328722   -0.419469
  H      0.155999   -3.481431   -2.038917
  H     -1.218391   -4.526496   -1.419488
  O      1.706061    1.795184   -0.631722
  H      0.983100    1.125704   -0.528210
  C      1.151375    2.892794   -1.316757
  H      0.393152    2.536505   -2.047252
  H      1.916679    3.480933   -1.756476
  H      0.584069    3.511207   -0.637399
  O     -0.020243   -0.148487   -1.466412
  H     -0.212023   -1.033816   -1.175852
  C      0.691392   -0.191810   -2.657400
  H      1.703514   -0.490715   -2.521795
  H      0.816091    0.680920   -3.322618
  H      0.266872   -0.880597   -3.390435
  O      0.918591    1.713825    1.943439
  H      1.822810    1.848437    1.609188
  C      0.943979    1.300389    3.312501
  H      1.234300    2.098783    3.939053
  H      1.629144    0.373768    3.412300
  H     -0.056968    1.007465    3.509655
  O     -0.821518   -2.376915    2.025144
  H     -0.655378   -1.421954    2.088788
  C      0.294839   -3.143608    2.455413
  H     -0.084785   -4.021583    2.933975
  H      0.894982   -2.591331    3.143251
  H      0.957936   -3.474791    1.665811

 Total Charge           Charge          ....    0
 Multiplicity           Mult            ....    1
 Number of Electrons    NEL             ....  108
 Basis Dimension        Dim             ....  516

ORBITAL ENERGIES
----------------

  NO   OCC          E(Eh)            E(eV)
   0   2.0000     -20.559301      -559.4470
   1   2.0000     -20.553028      -559.2763
   2   2.0000     -20.541896      -558.9734
   3   2.0000     -20.540495      -558.9353
   4   2.0000     -20.539601      -558.9110
   5   2.0000     -20.519451      -558.3626
   6   2.0000     -11.273964      -306.7801
   7   2.0000     -11.272419      -306.7381
   8   2.0000     -11.268198      -306.6232
   9   2.0000     -11.258568      -306.3612
  10   2.0000     -11.253138      -306.2134
  11   2.0000     -11.243041      -305.9387
  12   2.0000      -1.372321       -37.3427
  13   2.0000      -1.365616       -37.1603
  14   2.0000      -1.358616       -36.9698
  15   2.0000      -1.347081       -36.6559
  16   2.0000      -1.339550       -36.4510
  17   2.0000      -1.321599       -35.9625
  18   2.0000      -0.940769       -25.5996
  19   2.0000      -0.929687       -25.2981
  20   2.0000      -0.925099       -25.1732
  21   2.0000      -0.919929       -25.0325
  22   2.0000      -0.914787       -24.8926
  23   2.0000      -0.900296       -24.4983
  24   2.0000      -0.726746       -19.7758
  25   2.0000      -0.717455       -19.5230
  26   2.0000      -0.698934       -19.0190
  27   2.0000      -0.689325       -18.7575
  28   2.0000      -0.668478       -18.1902
  29   2.0000      -0.664148       -18.0724
  30   2.0000      -0.627154       -17.0657
  31   2.0000      -0.619588       -16.8598
  32   2.0000      -0.615883       -16.7590
  33   2.0000      -0.612842       -16.6763
  34   2.0000      -0.608954       -16.5705
  35   2.0000      -0.608069       -16.5464
  36   2.0000      -0.600605       -16.3433
  37   2.0000      -0.594454       -16.1759
  38   2.0000      -0.590498       -16.0683
  39   2.0000      -0.579876       -15.7792
  40   2.0000      -0.577053       -15.7024
  41   2.0000      -0.564273       -15.3546
  42   2.0000      -0.524755       -14.2793
  43   2.0000      -0.514343       -13.9960
  44   2.0000      -0.502492       -13.6735
  45   2.0000      -0.490419       -13.3450
  46   2.0000      -0.487545       -13.2668
  47   2.0000      -0.467791       -12.7292
  48   2.0000      -0.455924       -12.4063
  49   2.0000      -0.452533       -12.3140
  50   2.0000      -0.443622       -12.0716
  51   2.0000      -0.442443       -12.0395
  52   2.0000      -0.436270       -11.8715
  53   2.0000      -0.414576       -11.2812
  54   0.0000       0.130380         3.5478
  55   0.0000       0.146963         3.9991
  56   0.0000       0.150966         4.1080
  57   0.0000       0.164834         4.4854
  58   0.0000       0.181505         4.9390

MULLIKEN ATOMIC CHARGES
-----------------------
   0 O :   -0.503845
   1 H :    0.347798
   2 C :   -0.228503
   3 H :    0.146044
   4 H :    0.129761
   5 H :    0.133157
   6 O :   -0.540341
   7 H :    0.357775
   8 C :   -0.160669
   9 H :    0.107693
  10 H :    0.126159
  11 H :    0.121616
  12 O :   -0.534947
  13 H :    0.362313
  14 C :   -0.173717
  15 H :    0.109374
  16 H :    0.118071
  17 H :    0.108162
  18 O :   -0.533275
  19 H :    0.352724
  20 C :   -0.198663
  21 H :    0.121107
  22 H :    0.124126
  23 H :    0.111548
  24 O :   -0.522120
  25 H :    0.343059
  26 C :   -0.199863
  27 H :    0.120359
  28 H :    0.099458
  29 H :    0.147332
  30 O :   -0.540138
  31 H :    0.370876
  32 C :   -0.185524
  33 H :    0.130818
  34 H :    0.124300
  35 H :    0.107974
Sum of atomic charges:   -0.0000000

LOEWDIN ATOMIC CHARGES
----------------------
   0 O :   -0.072112
   1 H :    0.150137
   2 C :   -0.363568
   3 H :    0.110806
   4 H :    0.097830
   5 H :    0.116587
   6 O :   -0.061777
   7 H :    0.117507
   8 C :   -0.360549
   9 H :    0.095530
  10 H :    0.106737
  11 H :    0.102053
  12 O :   -0.090760
  13 H :    0.175724
  14 C :   -0.398250
  15 H :    0.101311
  16 H :    0.096119
  17 H :    0.089860
  18 O :   -0.050761
  19 H :    0.150955
  20 C :   -0.425303
  21 H :    0.091774
  22 H :    0.112326
  23 H :    0.097399
  24 O :   -0.107435
  25 H :    0.178008
  26 C :   -0.380210
  27 H :    0.087371
  28 H :    0.105554
  29 H :    0.100912
  30 O :   -0.068069
  31 H :    0.171769
  32 C :   -0.373257
  33 H :    0.104307
  34 H :    0.097975
  35 H :    0.093502

  Mayer bond orders larger than 0.100000
B(  0-O ,  1-H ) :   0.8286 B(  0-O ,  2-C ) :   0.8914 B(  2-C ,  3-H ) :   0.9277
B(  2-C ,  4-H ) :   0.9433 B(  2-C ,  5-H ) :   0.9343 B(  6-O ,  7-H ) :   0.7906
B(  6-O ,  8-C ) :   0.8916 B(  8-C ,  9-H ) :   0.9430 B(  8-C , 10-H ) :   0.9436
B(  8-C , 11-H ) :   0.9411 B( 12-O , 13-H ) :   0.7750 B( 12-O , 14-C ) :   0.9274
B( 14-C , 15-H ) :   0.9425 B( 14-C , 16-H ) :   0.9424 B( 14-C , 17-H ) :   0.9436
B( 18-O , 19-H ) :   0.7767 B( 18-O , 20-C ) :   0.9081 B( 20-C , 21-H ) :   0.9513
B( 20-C , 22-H ) :   0.9344 B( 20-C , 23-H ) :   0.9361 B( 24-O , 25-H ) :   0.8169
B( 24-O , 26-C ) :   0.9009 B( 26-C , 27-H ) :   0.9358 B( 26-C , 28-H ) :   0.9384
B( 26-C , 29-H ) :   0.9361 B( 30-O , 31-H ) :   0.7834 B( 30-O , 32-C ) :   0.9025
B( 32-C , 33-H ) :   0.9475 B( 32-C , 34-H ) :   0.9459 B( 32-C , 35-H ) :   0.9349

MP2 TOTAL ENERGY:     -693.062817301 Eh
FINAL SINGLE POINT ENERGY      -693.062817300712

DIPOLE MOMENT
-------------
                                X             Y             Z
Electronic contribution:     -0.77156       1.81037       2.00385
Nuclear contribution   :      0.92103      -2.39169      -1.75605
                        -----------------------------------------
Total Dipole Moment    :      0.14947      -0.58132       0.24780
                        -----------------------------------------
Magnitude (a.u.)       :      0.64937
Magnitude (Debye)      :      1.65057

Rotational constants in cm-1:     0.019159     0.015134     0.010612
Rotational constants in MHz :   574.359649   453.695239   318.145309

                             ****ORCA TERMINATED NORMALLY****
TOTAL RUN TIME: 0 days 0 hours 8 minutes 52 seconds 361 msec
