                         Program Version 4.2.0 -  RELEASE  -
|  1> ! RI-MP2 cc-pVTZ cc-pVTZ/C TightSCF FrozenCore
|  2>
|  3> %pal nprocs 24 end
|  4> %maxcore 8000
|  5> %scf ConvForced true end
|  6>
|  7> *xyz  0  1
|  8> O     0.00000     0.00000     0.00000
|  9> H    -0.70026    -0.62915     0.08934
| 10> C     0.87795    -0.23893     1.03079
| 11> H     0.96587     0.71823     1.57400
| 12> H     1.83718    -0.60676     0.66456
| 13> H     0.51217    -0.96426     1.73689
| 14> O    -0.06035     0.56475    -2.81895
| 15> H     0.70797     0.36886    -2.25150
| 16> C     0.06442     0.06828    -4.17230
| 17> H    -0.22157     0.82343    -4.88087
| 18> H    -0.45937    -0.83062    -4.26167
| 19> H     1.08328    -0.05448    -4.38688
| 20> O     2.46367     0.91143    -1.54141
| 21> H     2.59184     1.52422    -0.81681
| 22> C     3.74316     0.71087    -2.12348
| 23> H     3.91345    -0.32039    -2.44765
| 24> H     4.52249     0.93691    -1.41818
| 25> H     3.81779     1.34702    -2.96013
| 26> O    -2.40288    -1.52942     1.20564
| 27> H    -3.30698    -1.72491     1.47573
| 28> C    -1.65305    -2.74377     0.92907
| 29> H    -1.25423    -2.74311    -0.12878
| 30> H    -2.23744    -3.58761     1.18255
| 31> H    -0.82780    -2.71281     1.61620
| 32> O     0.42434     3.18557    -1.22194
| 33> H     0.46382     2.20641    -1.29442
| 34> C    -0.35287     3.63661    -2.29379
| 35> H    -0.16445     4.73324    -2.45022
| 36> H    -1.37221     3.48393    -2.09897
| 37> H    -0.06745     3.07005    -3.21746
| 38> O     1.61028    -3.65187    -0.05200
| 39> H     1.97956    -3.22991     0.72906
| 40> C     2.12687    -5.01135     0.11770
| 41> H     1.85357    -5.60852    -0.72304
| 42> H     1.71363    -5.49896     0.98146
| 43> H     3.18811    -4.94999     0.20772
| 44> O     3.27456     2.30660     0.51753
| 45> H     2.64408     2.79221     1.03863
| 46> C     4.59747     2.71169     0.84951
| 47> H     5.24712     1.84856     0.73763
| 48> H     4.55988     2.92584     1.96368
| 49> H     4.92955     3.53454     0.24336
| 50> O     3.35886    -2.83115     2.12140
| 51> H     4.09135    -2.85273     1.51410
| 52> C     3.64112    -3.74747     3.18137
| 53> H     2.97751    -3.53500     4.06722
| 54> H     4.68658    -3.63510     3.40105
| 55> H     3.43340    -4.74023     2.73836
| 56> O     1.77366     3.75697     2.80020
| 57> H     0.89853     4.09828     2.99334
| 58> C     2.18038     3.06208     3.96642
| 59> H     3.23277     2.89807     3.88316
| 60> H     1.69124     2.09080     4.01213
| 61> H     1.95663     3.60461     4.86012
| 62> O    -1.06780     3.68315     3.32112
| 63> H    -1.59032     3.54886     4.12394
| 64> C    -1.13055     2.51711     2.53616
| 65> H    -0.38158     2.55847     1.77654
| 66> H    -2.14000     2.43249     2.14582
| 67> H    -0.99357     1.63689     3.13392
| 68> O    -5.34865    -0.18487    -1.04645
| 69> H    -5.94109    -0.48059    -1.75193
| 70> C    -4.01671    -0.11340    -1.57191
| 71> H    -3.58784     0.91097    -1.54296
| 72> H    -4.00308    -0.54562    -2.60872
| 73> H    -3.38310    -0.69612    -0.97093
| 74> O    -4.88485     2.45165     0.38867
| 75> H    -5.25571     1.58858     0.05233
| 76> C    -4.83859     2.40755     1.83096
| 77> H    -4.29217     3.26154     2.18968
| 78> H    -4.38912     1.55499     2.16839
| 79> H    -5.80945     2.54295     2.27999
| 80> O     4.55985    -3.57420    -1.04349
| 81> H     3.98028    -3.09771    -1.68522
| 82> C     5.56734    -4.21736    -1.78216
| 83> H     5.57481    -5.26052    -1.50495
| 84> H     6.50686    -3.80251    -1.63918
| 85> H     5.33424    -4.16160    -2.85981
| 86> O    -5.53251    -1.35891     2.24354
| 87> H    -5.06775    -0.88621     2.96671
| 88> C    -6.81166    -0.88483     2.08686
| 89> H    -7.25582    -1.29515     1.18648
| 90> H    -6.76939     0.18756     1.89345
| 91> H    -7.50596    -1.06673     2.97712
| 92> O     0.49110    -3.86406    -4.82053
| 93> H     0.71858    -4.77263    -5.13018
| 94> C     1.27571    -3.67312    -3.66262
| 95> H     0.91973    -2.75942    -3.13880
| 96> H     2.33220    -3.48045    -3.87518
| 97> H     1.19258    -4.53421    -3.01336
| 98> O    -3.23254    -4.38856     3.54974
| 99> H    -2.52221    -4.27823     4.16290
|100> C    -4.45456    -3.80205     4.07156
|101> H    -5.23569    -3.85019     3.29487
|102> H    -4.32213    -2.76367     4.40718
|103> H    -4.79870    -4.40263     4.93148
|104> O     4.39395    -1.42184    -4.58371
|105> H     4.96533    -0.66967    -4.71322
|106> C     4.79628    -2.43774    -5.53720
|107> H     4.05672    -3.20395    -5.61193
|108> H     5.75423    -2.91750    -5.30194
|109> H     4.91111    -2.04224    -6.59227
|110> O     1.48364     2.91588    -5.64069
|111> H     1.66526     2.95710    -6.56610
|112> C     2.70374     3.06249    -4.97228
|113> H     2.47881     2.99289    -3.86750
|114> H     3.14857     3.96453    -5.27959
|115> H     3.32506     2.23489    -5.19224
|116> O    -0.10263    -1.82536     6.26336
|117> H    -0.79842    -1.24448     6.53210
|118> C     1.05975    -1.06818     6.12096
|119> H     1.90808    -1.70204     6.13543
|120> H     1.10695    -0.38772     6.92973
|121> H     0.97811    -0.53493     5.19361
|122> O     2.65820     6.27521     0.22395
|123> H     2.60320     5.67178     0.97515
|124> C     2.95969     5.57264    -1.05781
|125> H     3.45886     6.23779    -1.72474
|126> H     2.04146     5.23085    -1.57475
|127> H     3.55468     4.68447    -0.84680
|128> *
|129>
|130>                          ****END OF INPUT****

CARTESIAN COORDINATES (ANGSTROEM)
---------------------------------
  O      0.000000    0.000000    0.000000
  H     -0.700260   -0.629150    0.089340
  C      0.877950   -0.238930    1.030790
  H      0.965870    0.718230    1.574000
  H      1.837180   -0.606760    0.664560
  H      0.512170   -0.964260    1.736890
  O     -0.060350    0.564750   -2.818950
  H      0.707970    0.368860   -2.251500
  C      0.064420    0.068280   -4.172300
  H     -0.221570    0.823430   -4.880870
  H     -0.459370   -0.830620   -4.261670
  H      1.083280   -0.054480   -4.386880
  O      2.463670    0.911430   -1.541410
  H      2.591840    1.524220   -0.816810
  C      3.743160    0.710870   -2.123480
  H      3.913450   -0.320390   -2.447650
  H      4.522490    0.936910   -1.418180
  H      3.817790    1.347020   -2.960130
  O     -2.402880   -1.529420    1.205640
  H     -3.306980   -1.724910    1.475730
  C     -1.653050   -2.743770    0.929070
  H     -1.254230   -2.743110   -0.128780
  H     -2.237440   -3.587610    1.182550
  H     -0.827800   -2.712810    1.616200
  O      0.424340    3.185570   -1.221940
  H      0.463820    2.206410   -1.294420
  C     -0.352870    3.636610   -2.293790
  H     -0.164450    4.733240   -2.450220
  H     -1.372210    3.483930   -2.098970
  H     -0.067450    3.070050   -3.217460
  O      1.610280   -3.651870   -0.052000
  H      1.979560   -3.229910    0.729060
  C      2.126870   -5.011350    0.117700
  H      1.853570   -5.608520   -0.723040
  H      1.713630   -5.498960    0.981460
  H      3.188110   -4.949990    0.207720
  O      3.274560    2.306600    0.517530
  H      2.644080    2.792210    1.038630
  C      4.597470    2.711690    0.849510
  H      5.247120    1.848560    0.737630
  H      4.559880    2.925840    1.963680
  H      4.929550    3.534540    0.243360
  O      3.358860   -2.831150    2.121400
  H      4.091350   -2.852730    1.514100
  C      3.641120   -3.747470    3.181370
  H      2.977510   -3.535000    4.067220
  H      4.686580   -3.635100    3.401050
  H      3.433400   -4.740230    2.738360
  O      1.773660    3.756970    2.800200
  H      0.898530    4.098280    2.993340
  C      2.180380    3.062080    3.966420
  H      3.232770    2.898070    3.883160
  H      1.691240    2.090800    4.012130
  H      1.956630    3.604610    4.860120
  O     -1.067800    3.683150    3.321120
  H     -1.590320    3.548860    4.123940
  C     -1.130550    2.517110    2.536160
  H     -0.381580    2.558470    1.776540
  H     -2.140000    2.432490    2.145820
  H     -0.993570    1.636890    3.133920
  O     -5.348650   -0.184870   -1.046450
  H     -5.941090   -0.480590   -1.751930
  C     -4.016710   -0.113400   -1.571910
  H     -3.587840    0.910970   -1.542960
  H     -4.003080   -0.545620   -2.608720
  H     -3.383100   -0.696120   -0.970930
  O     -4.884850    2.451650    0.388670
  H     -5.255710    1.588580    0.052330
  C     -4.838590    2.407550    1.830960
  H     -4.292170    3.261540    2.189680
  H     -4.389120    1.554990    2.168390
  H     -5.809450    2.542950    2.279990
  O      4.559850   -3.574200   -1.043490
  H      3.980280   -3.097710   -1.685220
  C      5.567340   -4.217360   -1.782160
  H      5.574810   -5.260520   -1.504950
  H      6.506860   -3.802510   -1.639180
  H      5.334240   -4.161600   -2.859810
  O     -5.532510   -1.358910    2.243540
  H     -5.067750   -0.886210    2.966710
  C     -6.811660   -0.884830    2.086860
  H     -7.255820   -1.295150    1.186480
  H     -6.769390    0.187560    1.893450
  H     -7.505960   -1.066730    2.977120
  O      0.491100   -3.864060   -4.820530
  H      0.718580   -4.772630   -5.130180
  C      1.275710   -3.673120   -3.662620
  H      0.919730   -2.759420   -3.138800
  H      2.332200   -3.480450   -3.875180
  H      1.192580   -4.534210   -3.013360
  O     -3.232540   -4.388560    3.549740
  H     -2.522210   -4.278230    4.162900
  C     -4.454560   -3.802050    4.071560
  H     -5.235690   -3.850190    3.294870
  H     -4.322130   -2.763670    4.407180
  H     -4.798700   -4.402630    4.931480
  O      4.393950   -1.421840   -4.583710
  H      4.965330   -0.669670   -4.713220
  C      4.796280   -2.437740   -5.537200
  H      4.056720   -3.203950   -5.611930
  H      5.754230   -2.917500   -5.301940
  H      4.911110   -2.042240   -6.592270
  O      1.483640    2.915880   -5.640690
  H      1.665260    2.957100   -6.566100
  C      2.703740    3.062490   -4.972280
  H      2.478810    2.992890   -3.867500
  H      3.148570    3.964530   -5.279590
  H      3.325060    2.234890   -5.192240
  O     -0.102630   -1.825360    6.263360
  H     -0.798420   -1.244480    6.532100
  C      1.059750   -1.068180    6.120960
  H      1.908080   -1.702040    6.135430
  H      1.106950   -0.387720    6.929730
  H      0.978110   -0.534930    5.193610
  O      2.658200    6.275210    0.223950
  H      2.603200    5.671780    0.975150
  C      2.959690    5.572640   -1.057810
  H      3.458860    6.237790   -1.724740
  H      2.041460    5.230850   -1.574750
  H      3.554680    4.684470   -0.846800

 Total Charge           Charge          ....    0
 Multiplicity           Mult            ....    1
 Number of Electrons    NEL             ....  360
 Basis Dimension        Dim             .... 2320

ORBITAL ENERGIES
----------------

  NO   OCC          E(Eh)            E(eV)
   0   2.0000     -20.571643      -559.7829
   1   2.0000     -20.565933      -559.6275
   2   2.0000     -20.560134      -559.4697
   3   2.0000     -20.559769      -559.4598
   4   2.0000     -20.558215      -559.4175
   5   2.0000     -20.556007      -559.3574
   6   2.0000     -20.551754      -559.2417
   7   2.0000     -20.549557      -559.1819
   8   2.0000     -20.549260      -559.1738
   9   2.0000     -20.545289      -559.0657
  10   2.0000     -20.545209      -559.0636
  11   2.0000     -20.535219      -558.7917
  12   2.0000     -20.530251      -558.6565
  13   2.0000     -20.526112      -558.5439
  14   2.0000     -20.524416      -558.4978
  15   2.0000     -20.515089      -558.2439
  16   2.0000     -20.508180      -558.0560
  17   2.0000     -20.508109      -558.0540
  18   2.0000     -20.494106      -557.6730
  19   2.0000     -20.483826      -557.3932
  20   2.0000     -11.287213      -307.1407
  21   2.0000     -11.284292      -307.0612
  22   2.0000     -11.274691      -306.7999
  23   2.0000     -11.274204      -306.7867
  24   2.0000     -11.271459      -306.7120
  25   2.0000     -11.268593      -306.6340
  26   2.0000     -11.265542      -306.5510
  27   2.0000     -11.265469      -306.5490
  28   2.0000     -11.252151      -306.1866
  29   2.0000     -11.248459      -306.0861
  30   2.0000     -11.246924      -306.0444
  31   2.0000     -11.244592      -305.9809
  32   2.0000     -11.244557      -305.9800
  33   2.0000     -11.243492      -305.9510
  34   2.0000     -11.241322      -305.8919
  35   2.0000     -11.240594      -305.8721
  36   2.0000     -11.237502      -305.7880
  37   2.0000     -11.224624      -305.4375
  38   2.0000     -11.209508      -305.0262
  39   2.0000     -11.207418      -304.9693
  40   2.0000      -1.376257       -37.4498
  41   2.0000      -1.375594       -37.4318
  42   2.0000      -1.367274       -37.2054
  43   2.0000      -1.366774       -37.1918
  44   2.0000      -1.362473       -37.0748
  45   2.0000      -1.362275       -37.0694
  46   2.0000      -1.360926       -37.0327
  47   2.0000      -1.354793       -36.8658
  48   2.0000      -1.352669       -36.8080
  49   2.0000      -1.343932       -36.5702
  50   2.0000      -1.341859       -36.5138
  51   2.0000      -1.339858       -36.4594
  52   2.0000      -1.335634       -36.3445
  53   2.0000      -1.321848       -35.9693
  54   2.0000      -1.320049       -35.9204
  55   2.0000      -1.317323       -35.8462
  56   2.0000      -1.308146       -35.5965
  57   2.0000      -1.299282       -35.3553
  58   2.0000      -1.291331       -35.1389
  59   2.0000      -1.276838       -34.7445
  60   2.0000      -0.940584       -25.5946
  61   2.0000      -0.938995       -25.5513
  62   2.0000      -0.934412       -25.4266
  63   2.0000      -0.931291       -25.3417
  64   2.0000      -0.929598       -25.2956
  65   2.0000      -0.927237       -25.2314
  66   2.0000      -0.924575       -25.1590
  67   2.0000      -0.921654       -25.0795
  68   2.0000      -0.919115       -25.0104
  69   2.0000      -0.915750       -24.9188
  70   2.0000      -0.914354       -24.8808
  71   2.0000      -0.910792       -24.7839
  72   2.0000      -0.903733       -24.5918
  73   2.0000      -0.903311       -24.5803
  74   2.0000      -0.901898       -24.5419
  75   2.0000      -0.898303       -24.4441
  76   2.0000      -0.895114       -24.3573
  77   2.0000      -0.886680       -24.1278
  78   2.0000      -0.882430       -24.0121
  79   2.0000      -0.859465       -23.3872
  80   2.0000      -0.715510       -19.4700
  81   2.0000      -0.706211       -19.2170
  82   2.0000      -0.701642       -19.0927
  83   2.0000      -0.700187       -19.0530
  84   2.0000      -0.698955       -19.0195
  85   2.0000      -0.697583       -18.9822
  86   2.0000      -0.693141       -18.8613
  87   2.0000      -0.684353       -18.6222
  88   2.0000      -0.684031       -18.6134
  89   2.0000      -0.683339       -18.5946
  90   2.0000      -0.680932       -18.5291
  91   2.0000      -0.677123       -18.4254
  92   2.0000      -0.673182       -18.3182
  93   2.0000      -0.668817       -18.1994
  94   2.0000      -0.664804       -18.0902
  95   2.0000      -0.653953       -17.7950
  96   2.0000      -0.651126       -17.7181
  97   2.0000      -0.644472       -17.5370
  98   2.0000      -0.641269       -17.4498
  99   2.0000      -0.639882       -17.4121
 100   2.0000      -0.636144       -17.3104
 101   2.0000      -0.630292       -17.1511
 102   2.0000      -0.626557       -17.0495
 103   2.0000      -0.626298       -17.0424
 104   2.0000      -0.626026       -17.0350
 105   2.0000      -0.624864       -17.0034
 106   2.0000      -0.624082       -16.9821
 107   2.0000      -0.620885       -16.8951
 108   2.0000      -0.615734       -16.7550
 109   2.0000      -0.615407       -16.7461
 110   2.0000      -0.613922       -16.7057
 111   2.0000      -0.612882       -16.6774
 112   2.0000      -0.611752       -16.6466
 113   2.0000      -0.606438       -16.5020
 114   2.0000      -0.604720       -16.4553
 115   2.0000      -0.603329       -16.4174
 116   2.0000      -0.600585       -16.3428
 117   2.0000      -0.600057       -16.3284
 118   2.0000      -0.598455       -16.2848
 119   2.0000      -0.597205       -16.2508
 120   2.0000      -0.594543       -16.1783
 121   2.0000      -0.588887       -16.0244
 122   2.0000      -0.588562       -16.0156
 123   2.0000      -0.587969       -15.9994
 124   2.0000      -0.584921       -15.9165
 125   2.0000      -0.583989       -15.8912
 126   2.0000      -0.583068       -15.8661
 127   2.0000      -0.578203       -15.7337
 128   2.0000      -0.575327       -15.6555
 129   2.0000      -0.571684       -15.5563
 130   2.0000      -0.568426       -15.4677
 131   2.0000      -0.565002       -15.3745
 132   2.0000      -0.562095       -15.2954
 133   2.0000      -0.561783       -15.2869
 134   2.0000      -0.561317       -15.2742
 135   2.0000      -0.559297       -15.2193
 136   2.0000      -0.557591       -15.1728
 137   2.0000      -0.554266       -15.0823
 138   2.0000      -0.536831       -14.6079
 139   2.0000      -0.530997       -14.4492
 140   2.0000      -0.520756       -14.1705
 141   2.0000      -0.517756       -14.0889
 142   2.0000      -0.515134       -14.0175
 143   2.0000      -0.512026       -13.9329
 144   2.0000      -0.503959       -13.7134
 145   2.0000      -0.502548       -13.6750
 146   2.0000      -0.501606       -13.6494
 147   2.0000      -0.498119       -13.5545
 148   2.0000      -0.494258       -13.4494
 149   2.0000      -0.493108       -13.4182
 150   2.0000      -0.487282       -13.2596
 151   2.0000      -0.484496       -13.1838
 152   2.0000      -0.483485       -13.1563
 153   2.0000      -0.483289       -13.1510
 154   2.0000      -0.473921       -12.8960
 155   2.0000      -0.467376       -12.7179
 156   2.0000      -0.466691       -12.6993
 157   2.0000      -0.463805       -12.6208
 158   2.0000      -0.459588       -12.5060
 159   2.0000      -0.457156       -12.4399
 160   2.0000      -0.455798       -12.4029
 161   2.0000      -0.453657       -12.3446
 162   2.0000      -0.453050       -12.3281
 163   2.0000      -0.452467       -12.3122
 164   2.0000      -0.449335       -12.2270
 165   2.0000      -0.443077       -12.0567
 166   2.0000      -0.442122       -12.0308
 167   2.0000      -0.437502       -11.9050
 168   2.0000      -0.436416       -11.8755
 169   2.0000      -0.435540       -11.8517
 170   2.0000      -0.434094       -11.8123
 171   2.0000      -0.430240       -11.7074
 172   2.0000      -0.429248       -11.6804
 173   2.0000      -0.426459       -11.6045
 174   2.0000      -0.421638       -11.4733
 175   2.0000      -0.417834       -11.3698
 176   2.0000      -0.414644       -11.2830
 177   2.0000      -0.405807       -11.0426
 178   2.0000      -0.393747       -10.7144
 179   2.0000      -0.385218       -10.4823
 180   0.0000       0.098124         2.6701
 181   0.0000       0.109616         2.9828
 182   0.0000       0.120627         3.2824
 183   0.0000       0.126786         3.4500
 184   0.0000       0.133432         3.6309

MULLIKEN ATOMIC CHARGES
-----------------------
   0 O :   -0.405783
   1 H :    0.261420
   2 C :   -0.086699
   3 H :    0.037592
   4 H :    0.100856
   5 H :    0.086980
   6 O :   -0.498092
   7 H :    0.291931
   8 C :   -0.101694
   9 H :    0.095089
  10 H :    0.117154
  11 H :    0.077945
  12 O :   -0.482442
  13 H :    0.315238
  14 C :   -0.104248
  15 H :    0.098012
  16 H :    0.075532
  17 H :    0.069313
  18 O :   -0.474411
  19 H :    0.253821
  20 C :   -0.094882
  21 H :    0.086142
  22 H :    0.130882
  23 H :    0.083054
  24 O :   -0.473872
  25 H :    0.297054
  26 C :   -0.073416
  27 H :    0.053580
  28 H :    0.115230
  29 H :    0.072152
  30 O :   -0.459690
  31 H :    0.268057
  32 C :   -0.117759
  33 H :    0.104646
  34 H :    0.095507
  35 H :    0.092374
  36 O :   -0.451013
  37 H :    0.286085
  38 C :   -0.080909
  39 H :    0.104207
  40 H :    0.074072
  41 H :    0.096203
  42 O :   -0.433424
  43 H :    0.242867
  44 C :   -0.044727
  45 H :    0.094054
  46 H :    0.092512
  47 H :    0.063983
  48 O :   -0.463578
  49 H :    0.275109
  50 C :   -0.073357
  51 H :    0.101820
  52 H :    0.055673
  53 H :    0.103782
  54 O :   -0.433341
  55 H :    0.222516
  56 C :   -0.102646
  57 H :    0.143275
  58 H :    0.133824
  59 H :    0.055573
  60 O :   -0.443163
  61 H :    0.231235
  62 C :   -0.025833
  63 H :    0.092878
  64 H :    0.051316
  65 H :    0.097679
  66 O :   -0.457465
  67 H :    0.270289
  68 C :   -0.086489
  69 H :    0.108479
  70 H :    0.075458
  71 H :    0.070552
  72 O :   -0.444906
  73 H :    0.283141
  74 C :   -0.036268
  75 H :    0.073441
  76 H :    0.096101
  77 H :    0.048210
  78 O :   -0.400376
  79 H :    0.236985
  80 C :   -0.041366
  81 H :    0.098780
  82 H :    0.066677
  83 H :    0.052298
  84 O :   -0.411210
  85 H :    0.219488
  86 C :   -0.020489
  87 H :    0.115682
  88 H :    0.013720
  89 H :    0.076214
  90 O :   -0.415965
  91 H :    0.222497
  92 C :   -0.027851
  93 H :    0.107846
  94 H :    0.044390
  95 H :    0.073075
  96 O :   -0.402096
  97 H :    0.227538
  98 C :   -0.057928
  99 H :    0.107253
 100 H :    0.065024
 101 H :    0.078621
 102 O :   -0.376350
 103 H :    0.201920
 104 C :   -0.063704
 105 H :    0.102506
 106 H :    0.084596
 107 H :    0.061850
 108 O :   -0.410545
 109 H :    0.218151
 110 C :   -0.037806
 111 H :    0.091099
 112 H :    0.069981
 113 H :    0.070896
 114 O :   -0.470255
 115 H :    0.236237
 116 C :   -0.021290
 117 H :    0.098987
 118 H :    0.091087
 119 H :    0.050050
Sum of atomic charges:   -0.0000000

LOEWDIN ATOMIC CHARGES
----------------------
   0 O :    0.387840
   1 H :   -0.224257
   2 C :   -0.025378
   3 H :   -0.047473
   4 H :   -0.046574
   5 H :   -0.053538
   6 O :    0.284385
   7 H :   -0.234238
   8 C :    0.057112
   9 H :   -0.043778
  10 H :   -0.065839
  11 H :   -0.062401
  12 O :    0.359386
  13 H :   -0.299534
  14 C :    0.023120
  15 H :   -0.041288
  16 H :   -0.050488
  17 H :   -0.069154
  18 O :    0.286560
  19 H :   -0.209874
  20 C :    0.050575
  21 H :   -0.021975
  22 H :   -0.058852
  23 H :   -0.053282
  24 O :    0.288019
  25 H :   -0.174745
  26 C :   -0.011941
  27 H :   -0.035682
  28 H :   -0.069450
  29 H :   -0.033633
  30 O :    0.280608
  31 H :   -0.243417
  32 C :    0.058568
  33 H :   -0.050404
  34 H :   -0.053877
  35 H :   -0.066227
  36 O :    0.422393
  37 H :   -0.219370
  38 C :    0.029182
  39 H :   -0.041123
  40 H :   -0.021784
  41 H :   -0.056201
  42 O :    0.349319
  43 H :   -0.208350
  44 C :    0.032933
  45 H :   -0.018653
  46 H :   -0.053182
  47 H :   -0.042811
  48 O :    0.331573
  49 H :   -0.217594
  50 C :    0.026357
  51 H :   -0.046824
  52 H :   -0.046442
  53 H :   -0.048135
  54 O :    0.332315
  55 H :   -0.186747
  56 C :    0.029531
  57 H :   -0.037952
  58 H :   -0.036043
  59 H :   -0.056399
  60 O :    0.302842
  61 H :   -0.190130
  62 C :    0.040223
  63 H :   -0.024975
  64 H :   -0.030802
  65 H :   -0.064389
  66 O :    0.255883
  67 H :   -0.173581
  68 C :    0.046458
  69 H :   -0.035171
  70 H :   -0.086036
  71 H :   -0.051713
  72 O :    0.308866
  73 H :   -0.149207
  74 C :    0.017861
  75 H :   -0.044678
  76 H :   -0.068241
  77 H :   -0.032287
  78 O :    0.341678
  79 H :   -0.166231
  80 C :   -0.036351
  81 H :   -0.034992
  82 H :   -0.047454
  83 H :   -0.031286
  84 O :    0.284226
  85 H :   -0.164149
  86 C :    0.002405
  87 H :   -0.015797
  88 H :   -0.054878
  89 H :   -0.052647
  90 O :    0.311580
  91 H :   -0.226195
  92 C :    0.039393
  93 H :   -0.026714
  94 H :   -0.052192
  95 H :   -0.043453
  96 O :    0.306384
  97 H :   -0.209121
  98 C :    0.037509
  99 H :   -0.047048
 100 H :   -0.048188
 101 H :   -0.024539
 102 O :    0.358525
 103 H :   -0.222846
 104 C :    0.015210
 105 H :   -0.005966
 106 H :   -0.066073
 107 H :   -0.068208
 108 O :    0.343378
 109 H :   -0.216266
 110 C :    0.025735
 111 H :   -0.044860
 112 H :   -0.057586
 113 H :   -0.050267
 114 O :    0.244218
 115 H :   -0.211840
 116 C :    0.084011
 117 H :   -0.054209
 118 H :   -0.028716
 119 H :   -0.051968

  Mayer bond orders larger than 0.100000
B(  0-O ,  1-H ) :   0.9668 B(  0-O ,  2-C ) :   0.9924 B(  2-C ,  3-H ) :   0.9776
B(  2-C ,  4-H ) :   0.9734 B(  2-C ,  5-H ) :   0.9803 B(  6-O ,  7-H ) :   0.9123
B(  6-O ,  8-C ) :   0.9663 B(  8-C ,  9-H ) :   0.9740 B(  8-C , 10-H ) :   0.9733
B(  8-C , 11-H ) :   0.9794 B( 12-O , 13-H ) :   0.8865 B( 12-O , 14-C ) :   0.9987
B( 14-C , 15-H ) :   0.9736 B( 14-C , 16-H ) :   0.9821 B( 14-C , 17-H ) :   0.9763
B( 18-O , 19-H ) :   0.9632 B( 18-O , 20-C ) :   0.9338 B( 20-C , 21-H ) :   0.9715
B( 20-C , 22-H ) :   0.9752 B( 20-C , 23-H ) :   0.9778 B( 24-O , 25-H ) :   0.9145
B( 24-O , 26-C ) :   0.9812 B( 26-C , 27-H ) :   0.9817 B( 26-C , 28-H ) :   0.9807
B( 26-C , 29-H ) :   0.9697 B( 30-O , 31-H ) :   0.9433 B( 30-O , 32-C ) :   0.9716
B( 32-C , 33-H ) :   0.9800 B( 32-C , 34-H ) :   0.9808 B( 32-C , 35-H ) :   0.9671
B( 36-O , 37-H ) :   0.9245 B( 36-O , 38-C ) :   0.9686 B( 38-C , 39-H ) :   0.9786
B( 38-C , 40-H ) :   0.9919 B( 38-C , 41-H ) :   0.9667 B( 42-O , 43-H ) :   0.9644
B( 42-O , 44-C ) :   0.9543 B( 44-C , 45-H ) :   0.9760 B( 44-C , 46-H ) :   0.9878
B( 44-C , 47-H ) :   0.9709 B( 48-O , 49-H ) :   0.9273 B( 48-O , 50-C ) :   0.9658
B( 50-C , 51-H ) :   0.9793 B( 50-C , 52-H ) :   0.9652 B( 50-C , 53-H ) :   0.9872
B( 54-O , 55-H ) :   0.9858 B( 54-O , 56-C ) :   0.9150 B( 56-C , 57-H ) :   0.9614
B( 56-C , 58-H ) :   0.9840 B( 56-C , 59-H ) :   0.9741 B( 60-O , 61-H ) :   0.9865
B( 60-O , 62-C ) :   0.9209 B( 62-C , 63-H ) :   0.9694 B( 62-C , 64-H ) :   0.9964
B( 62-C , 65-H ) :   0.9598 B( 66-O , 67-H ) :   0.9427 B( 66-O , 68-C ) :   0.9875
B( 68-C , 69-H ) :   0.9831 B( 68-C , 70-H ) :   0.9649 B( 68-C , 71-H ) :   0.9747
B( 72-O , 73-H ) :   0.9441 B( 72-O , 74-C ) :   0.9838 B( 74-C , 75-H ) :   0.9750
B( 74-C , 76-H ) :   0.9726 B( 74-C , 77-H ) :   0.9849 B( 78-O , 79-H ) :   0.9679
B( 78-O , 80-C ) :   0.9811 B( 80-C , 81-H ) :   0.9764 B( 80-C , 82-H ) :   0.9788
B( 80-C , 83-H ) :   0.9802 B( 84-O , 85-H ) :   0.9918 B( 84-O , 86-C ) :   0.9758
B( 86-C , 87-H ) :   0.9702 B( 86-C , 88-H ) :   0.9645 B( 86-C , 89-H ) :   0.9870
B( 90-O , 91-H ) :   0.9923 B( 90-O , 92-C ) :   0.9638 B( 92-C , 93-H ) :   0.9738
B( 92-C , 94-H ) :   0.9743 B( 92-C , 95-H ) :   0.9751 B( 96-O , 97-H ) :   0.9844
B( 96-O , 98-C ) :   0.9744 B( 98-C , 99-H ) :   0.9747 B( 98-C ,100-H ) :   0.9687
B( 98-C ,101-H ) :   0.9831 B(102-O ,103-H ) :   0.9983 B(102-O ,104-C ) :   0.9741
B(104-C ,105-H ) :   0.9728 B(104-C ,106-H ) :   0.9763 B(104-C ,107-H ) :   0.9759
B(108-O ,109-H ) :   1.0006 B(108-O ,110-C ) :   0.9648 B(110-C ,111-H ) :   0.9741
B(110-C ,112-H ) :   0.9834 B(110-C ,113-H ) :   0.9723 B(114-O ,115-H ) :   0.9867
B(114-O ,116-C ) :   0.9522 B(116-C ,117-H ) :   0.9739 B(116-C ,118-H ) :   0.9718
B(116-C ,119-H ) :   0.9784

MP2 TOTAL ENERGY:    -2310.406712561 Eh
FINAL SINGLE POINT ENERGY     -2310.406712561342

DIPOLE MOMENT
-------------
                                X             Y             Z
Electronic contribution:    -10.17812       6.59119      -0.00112
Nuclear contribution   :     12.55438      -9.73478       1.57580
                        -----------------------------------------
Total Dipole Moment    :      2.37626      -3.14358       1.57467
                        -----------------------------------------
Magnitude (a.u.)       :      4.24362
Magnitude (Debye)      :     10.78642

Rotational constants in cm-1:     0.001671     0.001321     0.001185
Rotational constants in MHz :    50.090651    39.591766    35.538032

                             ****ORCA TERMINATED NORMALLY****
TOTAL RUN TIME: 0 days 1 hours 34 minutes 31 seconds 707 msec
