                         Program Version 4.2.0 -  RELEASE  -
|  1> ! RI-MP2 cc-pVTZ cc-pVTZ/C TightSCF FrozenCore
|  2>
|  3> %pal nprocs 24 end
|  4> %maxcore 8000
|  5> %scf ConvForced true end
|  6>
|  7> *xyz  0  1
|  8> O     0.00000     0.00000     0.00000
|  9> H    -0.60718     0.01492     0.74568
| 10> C     0.44737     1.33852    -0.23527
| 11> H     0.27262     1.57616    -1.28030
| 12> H     1.50908     1.41937     0.01395
| 13> H    -0.20264     2.00045     0.36996
| 14> O    -0.27498     0.11294     2.59164
| 15> H     0.13293    -0.74566     2.50120
| 16> C    -0.41706     0.23215     4.02639
| 17> H    -0.73723     1.23448     4.35753
| 18> H     0.55690     0.03175     4.58236
| 19> H    -1.14283    -0.47769     4.28447
| 20> O     2.56904    -0.90400    -2.49943
| 21> H     1.80807    -0.49219    -2.10423
| 22> C     2.13439    -2.16150    -2.91751
| 23> H     2.96331    -2.81639    -3.06326
| 24> H     1.63258    -2.07538    -3.88719
| 25> H     1.44168    -2.59915    -2.19568
| 26> O    -3.93805     0.14421     0.34567
| 27> H    -4.67636     0.03321     0.93599
| 28> C    -3.60449    -1.09350    -0.27931
| 29> H    -3.22417    -0.91568    -1.30232
| 30> H    -4.48042    -1.66330    -0.33782
| 31> H    -2.90621    -1.59734     0.24357
| 32> O    -2.30899     2.53258    -2.53163
| 33> H    -2.01867     1.88285    -1.86134
| 34> C    -3.76386     2.46926    -2.67900
| 35> H    -4.12117     3.19027    -3.43230
| 36> H    -4.27898     2.69962    -1.69242
| 37> H    -3.99319     1.43911    -2.98058
| 38> O    -1.13229    -3.35163    -2.40871
| 39> H    -0.35199    -3.63187    -1.91196
| 40> C    -1.99586    -4.41073    -2.68267
| 41> H    -2.91370    -4.13973    -3.32867
| 42> H    -2.37952    -4.72141    -1.69168
| 43> H    -1.44739    -5.21591    -3.11516
| 44> O    -1.92735     3.43210     2.27054
| 45> H    -2.09394     3.85264     3.15912
| 46> C    -2.95090     2.56776     1.92526
| 47> H    -2.85380     2.52401     0.86363
| 48> H    -3.91870     2.95910     2.13936
| 49> H    -2.82591     1.61709     2.39350
| 50> O     4.68906    -1.63161     0.69636
| 51> H     5.02685    -1.26547    -0.14009
| 52> C     3.31244    -1.26664     0.75227
| 53> H     2.71933    -2.13990     0.82408
| 54> H     2.99856    -0.70059    -0.11334
| 55> H     3.15726    -0.69662     1.63824
| 56> O     2.31930    -2.18366     3.93122
| 57> H     2.41680    -1.51179     4.65169
| 58> C     3.43389    -3.08772     4.08390
| 59> H     3.72140    -3.42541     3.07532
| 60> H     3.24895    -3.98313     4.73142
| 61> H     4.32789    -2.61328     4.44652
| 62> O     0.85476     4.00063     3.00162
| 63> H    -0.01822     3.62281     2.82994
| 64> C     1.91787     3.06037     2.68895
| 65> H     2.66048     2.98486     3.46380
| 66> H     2.38558     3.21944     1.72046
| 67> H     1.49723     2.15175     2.70591
| 68> O    -0.21723     2.06270    -4.68946
| 69> H     0.01494     2.63535    -3.95702
| 70> C     1.14775     1.76053    -5.27880
| 71> H     1.03597     1.54475    -6.35299
| 72> H     1.50792     0.86017    -4.79752
| 73> H     1.83962     2.61232    -5.05191
| 74> O     1.28446     5.07157    -0.44510
| 75> H     1.77359     5.89627    -0.56640
| 76> C     0.40365     4.91696    -1.57381
| 77> H    -0.27704     4.03049    -1.41142
| 78> H     0.98966     4.70664    -2.44576
| 79> H    -0.17269     5.81398    -1.67873
| 80> O     1.64083    -5.10944    -0.30076
| 81> H     2.51599    -5.50549    -0.43928
| 82> C     0.70976    -6.20046    -0.52003
| 83> H     0.03387    -6.13767    -1.38112
| 84> H     0.12660    -6.30886     0.41902
| 85> H     1.23411    -7.13762    -0.66650
| 86> O    -0.06994    -2.78290     4.99196
| 87> H     0.68158    -2.77825     4.40800
| 88> C    -0.34081    -4.09264     5.28331
| 89> H    -1.12669    -4.16070     6.09837
| 90> H     0.55789    -4.64973     5.54497
| 91> H    -0.87331    -4.54272     4.33226
| 92> O    -1.76216    -0.18036    -5.49255
| 93> H    -1.09620     0.46274    -5.30625
| 94> C    -1.50548    -1.12704    -4.48198
| 95> H    -1.24385    -2.08779    -4.96932
| 96> H    -2.45009    -1.15718    -3.87401
| 97> H    -0.66831    -0.86556    -3.80790
| 98> O     5.58719    -1.16338    -2.03966
| 99> H     5.58519    -1.92103    -2.58931
|100> C     6.96184    -0.62599    -2.09589
|101> H     6.92089     0.46606    -1.82470
|102> H     7.34352    -0.62573    -3.13499
|103> H     7.65452    -1.23492    -1.55566
|104> O     5.38456     2.62309     0.99964
|105> H     6.22895     2.50273     0.61156
|106> C     4.53689     2.67609    -0.06510
|107> H     3.53875     2.43862     0.28703
|108> H     4.87366     1.93771    -0.79920
|109> H     4.56226     3.65034    -0.46915
|110> O    -5.69993    -0.51947    -2.90854
|111> H    -6.16856    -0.82798    -3.67227
|112> C    -6.65382     0.18213    -2.15226
|113> H    -6.43444     0.01596    -1.11656
|114> H    -7.61917    -0.28385    -2.33404
|115> H    -6.67538     1.23431    -2.44109
|116> O    -3.52147     1.05646     5.32414
|117> H    -4.36356     1.30123     5.67745
|118> C    -2.95469     0.33162     6.34466
|119> H    -2.39408    -0.44934     5.92689
|120> H    -3.74357    -0.09401     6.97537
|121> H    -2.23926     1.03396     6.84445
|122> O    -3.54411    -3.75011     4.20977
|123> H    -3.28850    -4.52554     4.58791
|124> C    -2.81761    -3.71540     2.99362
|125> H    -3.37899    -3.13960     2.21055
|126> H    -2.79183    -4.70027     2.74911
|127> H    -1.78731    -3.33676     3.20966
|128> *
|129>
|130>                          ****END OF INPUT****

CARTESIAN COORDINATES (ANGSTROEM)
---------------------------------
  O      0.000000    0.000000    0.000000
  H     -0.607180    0.014920    0.745680
  C      0.447370    1.338520   -0.235270
  H      0.272620    1.576160   -1.280300
  H      1.509080    1.419370    0.013950
  H     -0.202640    2.000450    0.369960
  O     -0.274980    0.112940    2.591640
  H      0.132930   -0.745660    2.501200
  C     -0.417060    0.232150    4.026390
  H     -0.737230    1.234480    4.357530
  H      0.556900    0.031750    4.582360
  H     -1.142830   -0.477690    4.284470
  O      2.569040   -0.904000   -2.499430
  H      1.808070   -0.492190   -2.104230
  C      2.134390   -2.161500   -2.917510
  H      2.963310   -2.816390   -3.063260
  H      1.632580   -2.075380   -3.887190
  H      1.441680   -2.599150   -2.195680
  O     -3.938050    0.144210    0.345670
  H     -4.676360    0.033210    0.935990
  C     -3.604490   -1.093500   -0.279310
  H     -3.224170   -0.915680   -1.302320
  H     -4.480420   -1.663300   -0.337820
  H     -2.906210   -1.597340    0.243570
  O     -2.308990    2.532580   -2.531630
  H     -2.018670    1.882850   -1.861340
  C     -3.763860    2.469260   -2.679000
  H     -4.121170    3.190270   -3.432300
  H     -4.278980    2.699620   -1.692420
  H     -3.993190    1.439110   -2.980580
  O     -1.132290   -3.351630   -2.408710
  H     -0.351990   -3.631870   -1.911960
  C     -1.995860   -4.410730   -2.682670
  H     -2.913700   -4.139730   -3.328670
  H     -2.379520   -4.721410   -1.691680
  H     -1.447390   -5.215910   -3.115160
  O     -1.927350    3.432100    2.270540
  H     -2.093940    3.852640    3.159120
  C     -2.950900    2.567760    1.925260
  H     -2.853800    2.524010    0.863630
  H     -3.918700    2.959100    2.139360
  H     -2.825910    1.617090    2.393500
  O      4.689060   -1.631610    0.696360
  H      5.026850   -1.265470   -0.140090
  C      3.312440   -1.266640    0.752270
  H      2.719330   -2.139900    0.824080
  H      2.998560   -0.700590   -0.113340
  H      3.157260   -0.696620    1.638240
  O      2.319300   -2.183660    3.931220
  H      2.416800   -1.511790    4.651690
  C      3.433890   -3.087720    4.083900
  H      3.721400   -3.425410    3.075320
  H      3.248950   -3.983130    4.731420
  H      4.327890   -2.613280    4.446520
  O      0.854760    4.000630    3.001620
  H     -0.018220    3.622810    2.829940
  C      1.917870    3.060370    2.688950
  H      2.660480    2.984860    3.463800
  H      2.385580    3.219440    1.720460
  H      1.497230    2.151750    2.705910
  O     -0.217230    2.062700   -4.689460
  H      0.014940    2.635350   -3.957020
  C      1.147750    1.760530   -5.278800
  H      1.035970    1.544750   -6.352990
  H      1.507920    0.860170   -4.797520
  H      1.839620    2.612320   -5.051910
  O      1.284460    5.071570   -0.445100
  H      1.773590    5.896270   -0.566400
  C      0.403650    4.916960   -1.573810
  H     -0.277040    4.030490   -1.411420
  H      0.989660    4.706640   -2.445760
  H     -0.172690    5.813980   -1.678730
  O      1.640830   -5.109440   -0.300760
  H      2.515990   -5.505490   -0.439280
  C      0.709760   -6.200460   -0.520030
  H      0.033870   -6.137670   -1.381120
  H      0.126600   -6.308860    0.419020
  H      1.234110   -7.137620   -0.666500
  O     -0.069940   -2.782900    4.991960
  H      0.681580   -2.778250    4.408000
  C     -0.340810   -4.092640    5.283310
  H     -1.126690   -4.160700    6.098370
  H      0.557890   -4.649730    5.544970
  H     -0.873310   -4.542720    4.332260
  O     -1.762160   -0.180360   -5.492550
  H     -1.096200    0.462740   -5.306250
  C     -1.505480   -1.127040   -4.481980
  H     -1.243850   -2.087790   -4.969320
  H     -2.450090   -1.157180   -3.874010
  H     -0.668310   -0.865560   -3.807900
  O      5.587190   -1.163380   -2.039660
  H      5.585190   -1.921030   -2.589310
  C      6.961840   -0.625990   -2.095890
  H      6.920890    0.466060   -1.824700
  H      7.343520   -0.625730   -3.134990
  H      7.654520   -1.234920   -1.555660
  O      5.384560    2.623090    0.999640
  H      6.228950    2.502730    0.611560
  C      4.536890    2.676090   -0.065100
  H      3.538750    2.438620    0.287030
  H      4.873660    1.937710   -0.799200
  H      4.562260    3.650340   -0.469150
  O     -5.699930   -0.519470   -2.908540
  H     -6.168560   -0.827980   -3.672270
  C     -6.653820    0.182130   -2.152260
  H     -6.434440    0.015960   -1.116560
  H     -7.619170   -0.283850   -2.334040
  H     -6.675380    1.234310   -2.441090
  O     -3.521470    1.056460    5.324140
  H     -4.363560    1.301230    5.677450
  C     -2.954690    0.331620    6.344660
  H     -2.394080   -0.449340    5.926890
  H     -3.743570   -0.094010    6.975370
  H     -2.239260    1.033960    6.844450
  O     -3.544110   -3.750110    4.209770
  H     -3.288500   -4.525540    4.587910
  C     -2.817610   -3.715400    2.993620
  H     -3.378990   -3.139600    2.210550
  H     -2.791830   -4.700270    2.749110
  H     -1.787310   -3.336760    3.209660

 Total Charge           Charge          ....    0
 Multiplicity           Mult            ....    1
 Number of Electrons    NEL             ....  360
 Basis Dimension        Dim             .... 2320

ORBITAL ENERGIES
----------------

  NO   OCC          E(Eh)            E(eV)
   0   2.0000     -20.584865      -560.1427
   1   2.0000     -20.572957      -559.8186
   2   2.0000     -20.562511      -559.5344
   3   2.0000     -20.548445      -559.1516
   4   2.0000     -20.546976      -559.1116
   5   2.0000     -20.546501      -559.0987
   6   2.0000     -20.544343      -559.0400
   7   2.0000     -20.543391      -559.0141
   8   2.0000     -20.540795      -558.9434
   9   2.0000     -20.539909      -558.9193
  10   2.0000     -20.539542      -558.9093
  11   2.0000     -20.538195      -558.8727
  12   2.0000     -20.535439      -558.7977
  13   2.0000     -20.529953      -558.6484
  14   2.0000     -20.529920      -558.6475
  15   2.0000     -20.526198      -558.5463
  16   2.0000     -20.514832      -558.2370
  17   2.0000     -20.503276      -557.9225
  18   2.0000     -20.495321      -557.7060
  19   2.0000     -20.493848      -557.6660
  20   2.0000     -11.289466      -307.2020
  21   2.0000     -11.286870      -307.1314
  22   2.0000     -11.283049      -307.0274
  23   2.0000     -11.279271      -306.9246
  24   2.0000     -11.271639      -306.7169
  25   2.0000     -11.271589      -306.7155
  26   2.0000     -11.262203      -306.4601
  27   2.0000     -11.261743      -306.4476
  28   2.0000     -11.256843      -306.3143
  29   2.0000     -11.256740      -306.3115
  30   2.0000     -11.249606      -306.1174
  31   2.0000     -11.249567      -306.1163
  32   2.0000     -11.249413      -306.1121
  33   2.0000     -11.243358      -305.9473
  34   2.0000     -11.238175      -305.8063
  35   2.0000     -11.237125      -305.7777
  36   2.0000     -11.229531      -305.5711
  37   2.0000     -11.228544      -305.5442
  38   2.0000     -11.213665      -305.1393
  39   2.0000     -11.210304      -305.0479
  40   2.0000      -1.378266       -37.5045
  41   2.0000      -1.376172       -37.4475
  42   2.0000      -1.371933       -37.3322
  43   2.0000      -1.366660       -37.1887
  44   2.0000      -1.362433       -37.0737
  45   2.0000      -1.361141       -37.0385
  46   2.0000      -1.360170       -37.0121
  47   2.0000      -1.355457       -36.8839
  48   2.0000      -1.354558       -36.8594
  49   2.0000      -1.350932       -36.7607
  50   2.0000      -1.349505       -36.7219
  51   2.0000      -1.345118       -36.6025
  52   2.0000      -1.341576       -36.5061
  53   2.0000      -1.324162       -36.0323
  54   2.0000      -1.323932       -36.0260
  55   2.0000      -1.316641       -35.8276
  56   2.0000      -1.311524       -35.6884
  57   2.0000      -1.307200       -35.5707
  58   2.0000      -1.303744       -35.4767
  59   2.0000      -1.284530       -34.9538
  60   2.0000      -0.938049       -25.5256
  61   2.0000      -0.935020       -25.4432
  62   2.0000      -0.933680       -25.4067
  63   2.0000      -0.926427       -25.2094
  64   2.0000      -0.922435       -25.1007
  65   2.0000      -0.921043       -25.0629
  66   2.0000      -0.919598       -25.0235
  67   2.0000      -0.916000       -24.9256
  68   2.0000      -0.912115       -24.8199
  69   2.0000      -0.910104       -24.7652
  70   2.0000      -0.909306       -24.7435
  71   2.0000      -0.906828       -24.6761
  72   2.0000      -0.905495       -24.6398
  73   2.0000      -0.904463       -24.6117
  74   2.0000      -0.902622       -24.5616
  75   2.0000      -0.893609       -24.3163
  76   2.0000      -0.889870       -24.2146
  77   2.0000      -0.886496       -24.1228
  78   2.0000      -0.884886       -24.0790
  79   2.0000      -0.865963       -23.5640
  80   2.0000      -0.707986       -19.2653
  81   2.0000      -0.703269       -19.1369
  82   2.0000      -0.699317       -19.0294
  83   2.0000      -0.699289       -19.0286
  84   2.0000      -0.698474       -19.0064
  85   2.0000      -0.697395       -18.9771
  86   2.0000      -0.691296       -18.8111
  87   2.0000      -0.689605       -18.7651
  88   2.0000      -0.687793       -18.7158
  89   2.0000      -0.680125       -18.5071
  90   2.0000      -0.679670       -18.4948
  91   2.0000      -0.676795       -18.4165
  92   2.0000      -0.675768       -18.3886
  93   2.0000      -0.674326       -18.3493
  94   2.0000      -0.662476       -18.0269
  95   2.0000      -0.657789       -17.8993
  96   2.0000      -0.649746       -17.6805
  97   2.0000      -0.644279       -17.5317
  98   2.0000      -0.644154       -17.5283
  99   2.0000      -0.638994       -17.3879
 100   2.0000      -0.636323       -17.3152
 101   2.0000      -0.628764       -17.1095
 102   2.0000      -0.628010       -17.0890
 103   2.0000      -0.627723       -17.0812
 104   2.0000      -0.625064       -17.0089
 105   2.0000      -0.622635       -16.9428
 106   2.0000      -0.622448       -16.9377
 107   2.0000      -0.619594       -16.8600
 108   2.0000      -0.618634       -16.8339
 109   2.0000      -0.613609       -16.6971
 110   2.0000      -0.609076       -16.5738
 111   2.0000      -0.606816       -16.5123
 112   2.0000      -0.606117       -16.4933
 113   2.0000      -0.605245       -16.4695
 114   2.0000      -0.601610       -16.3706
 115   2.0000      -0.598824       -16.2948
 116   2.0000      -0.598530       -16.2868
 117   2.0000      -0.598234       -16.2788
 118   2.0000      -0.594868       -16.1872
 119   2.0000      -0.593507       -16.1502
 120   2.0000      -0.592583       -16.1250
 121   2.0000      -0.591095       -16.0845
 122   2.0000      -0.590358       -16.0645
 123   2.0000      -0.589480       -16.0406
 124   2.0000      -0.588451       -16.0126
 125   2.0000      -0.582131       -15.8406
 126   2.0000      -0.581034       -15.8107
 127   2.0000      -0.579417       -15.7667
 128   2.0000      -0.576655       -15.6916
 129   2.0000      -0.575304       -15.6548
 130   2.0000      -0.571602       -15.5541
 131   2.0000      -0.569771       -15.5043
 132   2.0000      -0.568525       -15.4704
 133   2.0000      -0.565013       -15.3748
 134   2.0000      -0.561119       -15.2688
 135   2.0000      -0.557643       -15.1743
 136   2.0000      -0.554240       -15.0816
 137   2.0000      -0.546841       -14.8803
 138   2.0000      -0.544109       -14.8060
 139   2.0000      -0.530185       -14.4271
 140   2.0000      -0.519598       -14.1390
 141   2.0000      -0.517762       -14.0890
 142   2.0000      -0.516393       -14.0518
 143   2.0000      -0.504859       -13.7379
 144   2.0000      -0.504746       -13.7348
 145   2.0000      -0.502405       -13.6711
 146   2.0000      -0.497242       -13.5306
 147   2.0000      -0.497064       -13.5258
 148   2.0000      -0.488848       -13.3022
 149   2.0000      -0.488395       -13.2899
 150   2.0000      -0.487434       -13.2638
 151   2.0000      -0.483565       -13.1585
 152   2.0000      -0.481159       -13.0930
 153   2.0000      -0.476298       -12.9607
 154   2.0000      -0.473351       -12.8805
 155   2.0000      -0.472187       -12.8488
 156   2.0000      -0.467436       -12.7196
 157   2.0000      -0.466542       -12.6953
 158   2.0000      -0.465337       -12.6625
 159   2.0000      -0.463189       -12.6040
 160   2.0000      -0.455463       -12.3938
 161   2.0000      -0.454401       -12.3649
 162   2.0000      -0.448666       -12.2088
 163   2.0000      -0.447895       -12.1878
 164   2.0000      -0.444812       -12.1039
 165   2.0000      -0.443788       -12.0761
 166   2.0000      -0.442562       -12.0427
 167   2.0000      -0.439671       -11.9641
 168   2.0000      -0.435823       -11.8593
 169   2.0000      -0.435729       -11.8568
 170   2.0000      -0.430917       -11.7259
 171   2.0000      -0.428833       -11.6691
 172   2.0000      -0.426487       -11.6053
 173   2.0000      -0.425468       -11.5776
 174   2.0000      -0.424289       -11.5455
 175   2.0000      -0.417195       -11.3525
 176   2.0000      -0.416346       -11.3293
 177   2.0000      -0.403627       -10.9832
 178   2.0000      -0.400644       -10.9021
 179   2.0000      -0.394647       -10.7389
 180   0.0000       0.101483         2.7615
 181   0.0000       0.119918         3.2631
 182   0.0000       0.122108         3.3227
 183   0.0000       0.124930         3.3995
 184   0.0000       0.129256         3.5172

MULLIKEN ATOMIC CHARGES
-----------------------
   0 O :   -0.488552
   1 H :    0.276844
   2 C :   -0.123631
   3 H :    0.082719
   4 H :    0.088709
   5 H :    0.138908
   6 O :   -0.446016
   7 H :    0.250808
   8 C :   -0.138421
   9 H :    0.122902
  10 H :    0.066741
  11 H :    0.167439
  12 O :   -0.404930
  13 H :    0.252279
  14 C :   -0.082836
  15 H :    0.085060
  16 H :    0.075095
  17 H :    0.084897
  18 O :   -0.430397
  19 H :    0.221034
  20 C :   -0.120226
  21 H :    0.109766
  22 H :    0.091765
  23 H :    0.134886
  24 O :   -0.454410
  25 H :    0.257457
  26 C :   -0.029456
  27 H :    0.094369
  28 H :    0.046388
  29 H :    0.099172
  30 O :   -0.401159
  31 H :    0.239129
  32 C :   -0.075426
  33 H :    0.097864
  34 H :    0.065063
  35 H :    0.085320
  36 O :   -0.419561
  37 H :    0.229108
  38 C :   -0.075501
  39 H :    0.111226
  40 H :    0.081959
  41 H :    0.074665
  42 O :   -0.493768
  43 H :    0.274231
  44 C :   -0.071390
  45 H :    0.078711
  46 H :    0.095469
  47 H :    0.081531
  48 O :   -0.430116
  49 H :    0.250237
  50 C :   -0.066929
  51 H :    0.110274
  52 H :    0.072362
  53 H :    0.103452
  54 O :   -0.485315
  55 H :    0.262869
  56 C :   -0.039851
  57 H :    0.077716
  58 H :    0.067644
  59 H :    0.096218
  60 O :   -0.428587
  61 H :    0.237202
  62 C :   -0.092947
  63 H :    0.107022
  64 H :    0.101648
  65 H :    0.085514
  66 O :   -0.400318
  67 H :    0.213834
  68 C :   -0.044635
  69 H :    0.080852
  70 H :    0.054466
  71 H :    0.090371
  72 O :   -0.414573
  73 H :    0.238458
  74 C :   -0.026813
  75 H :    0.063062
  76 H :    0.071113
  77 H :    0.076341
  78 O :   -0.419690
  79 H :    0.269585
  80 C :   -0.032384
  81 H :    0.073238
  82 H :    0.087710
  83 H :   -0.008545
  84 O :   -0.450647
  85 H :    0.266022
  86 C :   -0.017448
  87 H :    0.064206
  88 H :    0.067481
  89 H :    0.045605
  90 O :   -0.401508
  91 H :    0.218453
  92 C :   -0.063783
  93 H :    0.078349
  94 H :    0.084250
  95 H :    0.105492
  96 O :   -0.379062
  97 H :    0.208442
  98 C :   -0.055530
  99 H :    0.085139
 100 H :    0.062220
 101 H :    0.072530
 102 O :   -0.384822
 103 H :    0.216967
 104 C :   -0.057695
 105 H :    0.077142
 106 H :    0.078481
 107 H :    0.075525
 108 O :   -0.380505
 109 H :    0.214635
 110 C :   -0.056363
 111 H :    0.105090
 112 H :    0.071680
 113 H :    0.043001
 114 O :   -0.394260
 115 H :    0.199493
 116 C :   -0.077991
 117 H :    0.104498
 118 H :    0.101852
 119 H :    0.066740
Sum of atomic charges:   -0.0000000

LOEWDIN ATOMIC CHARGES
----------------------
   0 O :    0.289486
   1 H :   -0.239728
   2 C :    0.018670
   3 H :   -0.057329
   4 H :   -0.045961
   5 H :   -0.025279
   6 O :    0.340044
   7 H :   -0.200928
   8 C :    0.044156
   9 H :   -0.027952
  10 H :   -0.027580
  11 H :   -0.068195
  12 O :    0.355933
  13 H :   -0.207344
  14 C :    0.000248
  15 H :   -0.053881
  16 H :   -0.043319
  17 H :   -0.041536
  18 O :    0.335937
  19 H :   -0.217098
  20 C :    0.058498
  21 H :   -0.014160
  22 H :   -0.060924
  23 H :   -0.088239
  24 O :    0.262109
  25 H :   -0.185319
  26 C :    0.045266
  27 H :   -0.035271
  28 H :   -0.035697
  29 H :   -0.044118
  30 O :    0.339538
  31 H :   -0.189761
  32 C :   -0.017446
  33 H :   -0.005038
  34 H :   -0.046793
  35 H :   -0.068341
  36 O :    0.330775
  37 H :   -0.141890
  38 C :   -0.004770
  39 H :   -0.044873
  40 H :   -0.055230
  41 H :   -0.055830
  42 O :    0.269972
  43 H :   -0.223178
  44 C :    0.030549
  45 H :   -0.060550
  46 H :   -0.048198
  47 H :   -0.059604
  48 O :    0.329413
  49 H :   -0.149695
  50 C :    0.036464
  51 H :   -0.021429
  52 H :   -0.034953
  53 H :   -0.043823
  54 O :    0.271044
  55 H :   -0.233711
  56 C :    0.076702
  57 H :   -0.041824
  58 H :   -0.041903
  59 H :   -0.094979
  60 O :    0.288091
  61 H :   -0.218460
  62 C :    0.094643
  63 H :   -0.031991
  64 H :   -0.050022
  65 H :   -0.030342
  66 O :    0.294743
  67 H :   -0.195636
  68 C :    0.037375
  69 H :   -0.016668
  70 H :   -0.065673
  71 H :   -0.053876
  72 O :    0.275763
  73 H :   -0.182550
  74 C :    0.038810
  75 H :   -0.042341
  76 H :   -0.031716
  77 H :   -0.046398
  78 O :    0.362213
  79 H :   -0.271893
  80 C :   -0.054020
  81 H :   -0.025469
  82 H :   -0.057549
  83 H :   -0.034093
  84 O :    0.324697
  85 H :   -0.267322
  86 C :   -0.010719
  87 H :   -0.047919
  88 H :   -0.036889
  89 H :   -0.045155
  90 O :    0.350581
  91 H :   -0.240310
  92 C :    0.067104
  93 H :   -0.021258
  94 H :   -0.034321
  95 H :   -0.055540
  96 O :    0.383775
  97 H :   -0.225429
  98 C :   -0.014931
  99 H :   -0.041192
 100 H :   -0.044131
 101 H :   -0.064835
 102 O :    0.347265
 103 H :   -0.213322
 104 C :    0.017053
 105 H :   -0.048241
 106 H :   -0.045118
 107 H :   -0.043830
 108 O :    0.362178
 109 H :   -0.214056
 110 C :   -0.008218
 111 H :   -0.059662
 112 H :   -0.039785
 113 H :   -0.036229
 114 O :    0.391511
 115 H :   -0.298580
 116 C :    0.043225
 117 H :   -0.019394
 118 H :   -0.089500
 119 H :   -0.035566

  Mayer bond orders larger than 0.100000
B(  0-O ,  1-H ) :   0.9400 B(  0-O ,  2-C ) :   0.9540 B(  2-C ,  3-H ) :   0.9740
B(  2-C ,  4-H ) :   0.9752 B(  2-C ,  5-H ) :   0.9811 B(  6-O ,  7-H ) :   0.9578
B(  6-O ,  8-C ) :   0.9237 B(  8-C ,  9-H ) :   0.9690 B(  8-C , 10-H ) :   0.9778
B(  8-C , 11-H ) :   0.9784 B( 12-O , 13-H ) :   0.9717 B( 12-O , 14-C ) :   0.9866
B( 14-C , 15-H ) :   0.9776 B( 14-C , 16-H ) :   0.9776 B( 14-C , 17-H ) :   0.9849
B( 18-O , 19-H ) :   0.9922 B( 18-O , 20-C ) :   0.9393 B( 20-C , 21-H ) :   0.9726
B( 20-C , 22-H ) :   0.9886 B( 20-C , 23-H ) :   0.9669 B( 24-O , 25-H ) :   0.9689
B( 24-O , 26-C ) :   0.9586 B( 26-C , 27-H ) :   0.9769 B( 26-C , 28-H ) :   0.9725
B( 26-C , 29-H ) :   0.9730 B( 30-O , 31-H ) :   0.9722 B( 30-O , 32-C ) :   0.9755
B( 32-C , 33-H ) :   0.9764 B( 32-C , 34-H ) :   0.9849 B( 32-C , 35-H ) :   0.9762
B( 36-O , 37-H ) :   0.9754 B( 36-O , 38-C ) :   0.9576 B( 38-C , 39-H ) :   0.9738
B( 38-C , 40-H ) :   0.9887 B( 38-C , 41-H ) :   0.9587 B( 42-O , 43-H ) :   0.9531
B( 42-O , 44-C ) :   0.9504 B( 44-C , 45-H ) :   0.9716 B( 44-C , 46-H ) :   0.9821
B( 44-C , 47-H ) :   0.9709 B( 48-O , 49-H ) :   0.9667 B( 48-O , 50-C ) :   0.9460
B( 50-C , 51-H ) :   0.9729 B( 50-C , 52-H ) :   0.9715 B( 50-C , 53-H ) :   0.9851
B( 54-O , 55-H ) :   0.9629 B( 54-O , 56-C ) :   0.9586 B( 56-C , 57-H ) :   0.9774
B( 56-C , 58-H ) :   0.9817 B( 56-C , 59-H ) :   0.9681 B( 60-O , 61-H ) :   0.9763
B( 60-O , 62-C ) :   0.9419 B( 62-C , 63-H ) :   0.9777 B( 62-C , 64-H ) :   0.9549
B( 62-C , 65-H ) :   0.9892 B( 66-O , 67-H ) :   0.9941 B( 66-O , 68-C ) :   0.9661
B( 68-C , 69-H ) :   0.9704 B( 68-C , 70-H ) :   0.9725 B( 68-C , 71-H ) :   0.9831
B( 72-O , 73-H ) :   0.9859 B( 72-O , 74-C ) :   0.9770 B( 74-C , 75-H ) :   0.9593
B( 74-C , 76-H ) :   0.9753 B( 74-C , 77-H ) :   0.9877 B( 78-O , 79-H ) :   0.9242
B( 78-O , 80-C ) :   1.0168 B( 80-C , 81-H ) :   0.9784 B( 80-C , 82-H ) :   0.9752
B( 80-C , 83-H ) :   0.9786 B( 84-O , 85-H ) :   0.9690 B( 84-O , 86-C ) :   0.9775
B( 86-C , 87-H ) :   0.9761 B( 86-C , 88-H ) :   0.9780 B( 86-C , 89-H ) :   0.9731
B( 90-O , 91-H ) :   0.9942 B( 90-O , 92-C ) :   0.9539 B( 92-C , 93-H ) :   0.9783
B( 92-C , 94-H ) :   0.9882 B( 92-C , 95-H ) :   0.9666 B( 96-O , 97-H ) :   1.0076
B( 96-O , 98-C ) :   0.9787 B( 98-C , 99-H ) :   0.9785 B( 98-C ,100-H ) :   0.9807
B( 98-C ,101-H ) :   0.9723 B(102-O ,103-H ) :   0.9945 B(102-O ,104-C ) :   0.9752
B(104-C ,105-H ) :   0.9692 B(104-C ,106-H ) :   0.9941 B(104-C ,107-H ) :   0.9718
B(108-O ,109-H ) :   1.0013 B(108-O ,110-C ) :   0.9771 B(110-C ,111-H ) :   0.9600
B(110-C ,112-H ) :   0.9925 B(110-C ,113-H ) :   0.9775 B(114-O ,115-H ) :   1.0209
B(114-O ,116-C ) :   0.9592 B(116-C ,117-H ) :   0.9878 B(116-C ,118-H ) :   0.9896
B(116-C ,119-H ) :   0.9602

MP2 TOTAL ENERGY:    -2310.326643888 Eh
FINAL SINGLE POINT ENERGY     -2310.326643888080

DIPOLE MOMENT
-------------
                                X             Y             Z
Electronic contribution:      2.68561      10.24421       1.85974
Nuclear contribution   :     -2.36967     -13.82156      -1.16157
                        -----------------------------------------
Total Dipole Moment    :      0.31595      -3.57735       0.69817
                        -----------------------------------------
Magnitude (a.u.)       :      3.65851
Magnitude (Debye)      :      9.29920

Rotational constants in cm-1:     0.001533     0.001485     0.001306
Rotational constants in MHz :    45.966777    44.524473    39.147098

                             ****ORCA TERMINATED NORMALLY****
TOTAL RUN TIME: 0 days 1 hours 34 minutes 46 seconds 189 msec
