                         Program Version 4.2.0 -  RELEASE  -
|  1> ! RI-MP2 cc-pVTZ cc-pVTZ/C TightSCF FrozenCore
|  2>
|  3> %pal nprocs 24 end
|  4> %maxcore 8000
|  5> %scf ConvForced true end
|  6>
|  7> *xyz  0  1
|  8> O     0.00000     0.00000     0.00000
|  9> H     0.76017    -0.59164     0.09309
| 10> C    -1.01132    -0.75494    -0.59786
| 11> H    -1.96446    -0.17931    -0.44304
| 12> H    -1.12986    -1.68393    -0.01903
| 13> H    -0.73917    -0.98362    -1.67680
| 14> O     2.16826    -2.08701     0.60347
| 15> H     2.01564    -3.02661     0.89880
| 16> C     2.73068    -1.24854     1.65310
| 17> H     3.41316    -0.56092     1.19112
| 18> H     3.22664    -1.85744     2.37059
| 19> H     1.89271    -0.81542     2.10610
| 20> O     1.25462     2.65390    -0.92550
| 21> H     0.41507     2.10541    -0.83180
| 22> C     1.94485     2.69702     0.30405
| 23> H     3.00192     2.97468     0.10237
| 24> H     1.92441     1.76679     0.82872
| 25> H     1.48496     3.45977     0.87784
| 26> O    -1.67281    -0.41829     3.76592
| 27> H    -1.05753     0.16459     4.21953
| 28> C    -0.93378    -1.51589     3.44895
| 29> H    -1.20983    -2.42901     3.98115
| 30> H     0.10051    -1.32296     3.70213
| 31> H    -1.16679    -1.68345     2.39398
| 32> O    -1.71312    -3.39194    -2.20426
| 33> H    -2.22283    -2.86593    -2.85433
| 34> C    -2.45952    -4.63905    -2.05700
| 35> H    -2.57457    -4.90850    -0.99693
| 36> H    -1.82291    -5.32594    -2.42563
| 37> H    -3.41140    -4.61840    -2.65026
| 38> O     1.59665    -4.57012     1.29104
| 39> H     2.02684    -5.24666     0.67319
| 40> C     1.47945    -5.15182     2.55224
| 41> H     1.38716    -4.40399     3.33755
| 42> H     2.33628    -5.79151     2.81470
| 43> H     0.54834    -5.80549     2.52657
| 44> O     4.08583    -0.66479    -2.91683
| 45> H     5.03360    -0.81541    -2.83191
| 46> C     3.77579     0.41748    -2.05017
| 47> H     2.74074     0.40523    -1.84973
| 48> H     3.97442     1.44443    -2.46470
| 49> H     4.26025     0.24818    -1.07841
| 50> O    -0.99164     4.43343    -2.49650
| 51> H    -0.90097     4.24015    -1.52952
| 52> C     0.36680     4.57337    -2.94171
| 53> H     0.38734     5.02753    -3.92863
| 54> H     0.87983     3.62557    -3.00061
| 55> H     0.97750     5.31192    -2.33772
| 56> O    -4.25594    -2.30671    -3.35334
| 57> H    -4.28121    -1.34093    -3.48959
| 58> C    -5.60139    -2.65012    -3.54666
| 59> H    -5.77629    -3.67756    -3.23233
| 60> H    -5.90892    -2.52982    -4.61199
| 61> H    -6.13842    -2.00753    -2.93760
| 62> O     2.63635    -1.30909    -5.15921
| 63> H     3.36318    -1.48406    -4.56596
| 64> C     1.51763    -1.67885    -4.35834
| 65> H     0.74556    -2.07358    -4.99729
| 66> H     1.08158    -0.85946    -3.81186
| 67> H     1.75182    -2.47823    -3.69990
| 68> O    -5.41155     0.84679     2.32296
| 69> H    -5.92824     1.05919     1.58831
| 70> C    -4.73166    -0.38947     2.06556
| 71> H    -4.66654    -0.96633     2.98717
| 72> H    -3.74158    -0.19621     1.71558
| 73> H    -5.31285    -0.91203     1.26865
| 74> O    -0.06278     2.09245    -5.85250
| 75> H    -0.67574     1.47795    -6.21649
| 76> C     1.17429     1.51456    -6.16087
| 77> H     1.88392     2.36799    -6.49128
| 78> H     1.04376     0.78859    -6.96143
| 79> H     1.61552     1.00279    -5.33866
| 80> O     5.96769     0.09143     1.96153
| 81> H     5.96405    -0.83476     2.20329
| 82> C     5.24598     0.78171     3.07486
| 83> H     5.77642     1.73328     3.27280
| 84> H     5.13743     0.08660     3.93076
| 85> H     4.20566     1.09789     2.66420
| 86> O     5.05775    -3.83355    -0.37649
| 87> H     4.26904    -3.27212    -0.07473
| 88> C     5.92259    -2.93186    -0.86718
| 89> H     6.57930    -3.47406    -1.47743
| 90> H     6.55047    -2.52322    -0.03051
| 91> H     5.39471    -2.19684    -1.39548
| 92> O    -0.68219     5.02131     3.97284
| 93> H    -1.31901     5.12677     3.31801
| 94> C    -0.18233     3.76042     4.03339
| 95> H     0.22087     3.60321     4.98950
| 96> H     0.65316     3.66517     3.23979
| 97> H    -0.97465     3.09516     3.79824
| 98> O    -4.51476     0.40393    -4.58404
| 99> H    -4.88202     0.55227    -5.45216
|100> C    -3.60266     1.42723    -4.33703
|101> H    -2.71641     0.98783    -3.81347
|102> H    -4.14323     2.15092    -3.72013
|103> H    -3.25305     1.83463    -5.34140
|104> O     4.57097     4.76206    -0.55078
|105> H     5.23731     4.06837    -0.26253
|106> C     4.54749     4.64374    -1.93295
|107> H     3.62473     5.03538    -2.34928
|108> H     4.71900     3.62971    -2.12390
|109> H     5.30743     5.33072    -2.34401
|110> O     6.16055     2.52336    -0.18794
|111> H     5.90696     1.77174     0.37098
|112> C     7.09442     2.00857    -1.13126
|113> H     6.89128     2.37053    -2.13423
|114> H     6.94209     0.94563    -1.19548
|115> H     8.15728     2.20954    -0.88133
|116> O     2.36282    -6.34494    -0.90143
|117> H     2.35229    -5.40181    -1.21465
|118> C     1.09681    -6.86715    -1.22740
|119> H     0.50873    -7.15523    -0.36079
|120> H     1.24986    -7.76701    -1.78410
|121> H     0.53722    -6.26004    -1.95636
|122> O     5.61598    -2.80317     2.71800
|123> H     5.41765    -3.69230     2.46517
|124> C     6.85797    -2.87329     3.43292
|125> H     7.46962    -2.08107     3.17729
|126> H     7.26384    -3.82062     3.08150
|127> H     6.71501    -2.91277     4.47625
|128> *
|129>
|130>                          ****END OF INPUT****

CARTESIAN COORDINATES (ANGSTROEM)
---------------------------------
  O      0.000000    0.000000    0.000000
  H      0.760170   -0.591640    0.093090
  C     -1.011320   -0.754940   -0.597860
  H     -1.964460   -0.179310   -0.443040
  H     -1.129860   -1.683930   -0.019030
  H     -0.739170   -0.983620   -1.676800
  O      2.168260   -2.087010    0.603470
  H      2.015640   -3.026610    0.898800
  C      2.730680   -1.248540    1.653100
  H      3.413160   -0.560920    1.191120
  H      3.226640   -1.857440    2.370590
  H      1.892710   -0.815420    2.106100
  O      1.254620    2.653900   -0.925500
  H      0.415070    2.105410   -0.831800
  C      1.944850    2.697020    0.304050
  H      3.001920    2.974680    0.102370
  H      1.924410    1.766790    0.828720
  H      1.484960    3.459770    0.877840
  O     -1.672810   -0.418290    3.765920
  H     -1.057530    0.164590    4.219530
  C     -0.933780   -1.515890    3.448950
  H     -1.209830   -2.429010    3.981150
  H      0.100510   -1.322960    3.702130
  H     -1.166790   -1.683450    2.393980
  O     -1.713120   -3.391940   -2.204260
  H     -2.222830   -2.865930   -2.854330
  C     -2.459520   -4.639050   -2.057000
  H     -2.574570   -4.908500   -0.996930
  H     -1.822910   -5.325940   -2.425630
  H     -3.411400   -4.618400   -2.650260
  O      1.596650   -4.570120    1.291040
  H      2.026840   -5.246660    0.673190
  C      1.479450   -5.151820    2.552240
  H      1.387160   -4.403990    3.337550
  H      2.336280   -5.791510    2.814700
  H      0.548340   -5.805490    2.526570
  O      4.085830   -0.664790   -2.916830
  H      5.033600   -0.815410   -2.831910
  C      3.775790    0.417480   -2.050170
  H      2.740740    0.405230   -1.849730
  H      3.974420    1.444430   -2.464700
  H      4.260250    0.248180   -1.078410
  O     -0.991640    4.433430   -2.496500
  H     -0.900970    4.240150   -1.529520
  C      0.366800    4.573370   -2.941710
  H      0.387340    5.027530   -3.928630
  H      0.879830    3.625570   -3.000610
  H      0.977500    5.311920   -2.337720
  O     -4.255940   -2.306710   -3.353340
  H     -4.281210   -1.340930   -3.489590
  C     -5.601390   -2.650120   -3.546660
  H     -5.776290   -3.677560   -3.232330
  H     -5.908920   -2.529820   -4.611990
  H     -6.138420   -2.007530   -2.937600
  O      2.636350   -1.309090   -5.159210
  H      3.363180   -1.484060   -4.565960
  C      1.517630   -1.678850   -4.358340
  H      0.745560   -2.073580   -4.997290
  H      1.081580   -0.859460   -3.811860
  H      1.751820   -2.478230   -3.699900
  O     -5.411550    0.846790    2.322960
  H     -5.928240    1.059190    1.588310
  C     -4.731660   -0.389470    2.065560
  H     -4.666540   -0.966330    2.987170
  H     -3.741580   -0.196210    1.715580
  H     -5.312850   -0.912030    1.268650
  O     -0.062780    2.092450   -5.852500
  H     -0.675740    1.477950   -6.216490
  C      1.174290    1.514560   -6.160870
  H      1.883920    2.367990   -6.491280
  H      1.043760    0.788590   -6.961430
  H      1.615520    1.002790   -5.338660
  O      5.967690    0.091430    1.961530
  H      5.964050   -0.834760    2.203290
  C      5.245980    0.781710    3.074860
  H      5.776420    1.733280    3.272800
  H      5.137430    0.086600    3.930760
  H      4.205660    1.097890    2.664200
  O      5.057750   -3.833550   -0.376490
  H      4.269040   -3.272120   -0.074730
  C      5.922590   -2.931860   -0.867180
  H      6.579300   -3.474060   -1.477430
  H      6.550470   -2.523220   -0.030510
  H      5.394710   -2.196840   -1.395480
  O     -0.682190    5.021310    3.972840
  H     -1.319010    5.126770    3.318010
  C     -0.182330    3.760420    4.033390
  H      0.220870    3.603210    4.989500
  H      0.653160    3.665170    3.239790
  H     -0.974650    3.095160    3.798240
  O     -4.514760    0.403930   -4.584040
  H     -4.882020    0.552270   -5.452160
  C     -3.602660    1.427230   -4.337030
  H     -2.716410    0.987830   -3.813470
  H     -4.143230    2.150920   -3.720130
  H     -3.253050    1.834630   -5.341400
  O      4.570970    4.762060   -0.550780
  H      5.237310    4.068370   -0.262530
  C      4.547490    4.643740   -1.932950
  H      3.624730    5.035380   -2.349280
  H      4.719000    3.629710   -2.123900
  H      5.307430    5.330720   -2.344010
  O      6.160550    2.523360   -0.187940
  H      5.906960    1.771740    0.370980
  C      7.094420    2.008570   -1.131260
  H      6.891280    2.370530   -2.134230
  H      6.942090    0.945630   -1.195480
  H      8.157280    2.209540   -0.881330
  O      2.362820   -6.344940   -0.901430
  H      2.352290   -5.401810   -1.214650
  C      1.096810   -6.867150   -1.227400
  H      0.508730   -7.155230   -0.360790
  H      1.249860   -7.767010   -1.784100
  H      0.537220   -6.260040   -1.956360
  O      5.615980   -2.803170    2.718000
  H      5.417650   -3.692300    2.465170
  C      6.857970   -2.873290    3.432920
  H      7.469620   -2.081070    3.177290
  H      7.263840   -3.820620    3.081500
  H      6.715010   -2.912770    4.476250

 Total Charge           Charge          ....    0
 Multiplicity           Mult            ....    1
 Number of Electrons    NEL             ....  360
 Basis Dimension        Dim             .... 2320

ORBITAL ENERGIES
----------------

  NO   OCC          E(Eh)            E(eV)
   0   2.0000     -20.590418      -560.2938
   1   2.0000     -20.588856      -560.2513
   2   2.0000     -20.586027      -560.1743
   3   2.0000     -20.572805      -559.8145
   4   2.0000     -20.569758      -559.7316
   5   2.0000     -20.569100      -559.7137
   6   2.0000     -20.567544      -559.6713
   7   2.0000     -20.562137      -559.5242
   8   2.0000     -20.552641      -559.2658
   9   2.0000     -20.550137      -559.1977
  10   2.0000     -20.541801      -558.9708
  11   2.0000     -20.534855      -558.7818
  12   2.0000     -20.533908      -558.7560
  13   2.0000     -20.533844      -558.7543
  14   2.0000     -20.533237      -558.7378
  15   2.0000     -20.531243      -558.6835
  16   2.0000     -20.527998      -558.5952
  17   2.0000     -20.526199      -558.5463
  18   2.0000     -20.523099      -558.4619
  19   2.0000     -20.507545      -558.0387
  20   2.0000     -11.304326      -307.6063
  21   2.0000     -11.299450      -307.4737
  22   2.0000     -11.290035      -307.2175
  23   2.0000     -11.283175      -307.0308
  24   2.0000     -11.281571      -306.9872
  25   2.0000     -11.280046      -306.9457
  26   2.0000     -11.266946      -306.5892
  27   2.0000     -11.264378      -306.5193
  28   2.0000     -11.264356      -306.5187
  29   2.0000     -11.262408      -306.4657
  30   2.0000     -11.260691      -306.4190
  31   2.0000     -11.257142      -306.3224
  32   2.0000     -11.255914      -306.2890
  33   2.0000     -11.255635      -306.2814
  34   2.0000     -11.255404      -306.2751
  35   2.0000     -11.245779      -306.0132
  36   2.0000     -11.240454      -305.8683
  37   2.0000     -11.237044      -305.7755
  38   2.0000     -11.231076      -305.6131
  39   2.0000     -11.228338      -305.5386
  40   2.0000      -1.396526       -38.0014
  41   2.0000      -1.393601       -37.9218
  42   2.0000      -1.385629       -37.7049
  43   2.0000      -1.384540       -37.6752
  44   2.0000      -1.383511       -37.6472
  45   2.0000      -1.380864       -37.5752
  46   2.0000      -1.374999       -37.4156
  47   2.0000      -1.373787       -37.3827
  48   2.0000      -1.371007       -37.3070
  49   2.0000      -1.361410       -37.0459
  50   2.0000      -1.351757       -36.7832
  51   2.0000      -1.351583       -36.7784
  52   2.0000      -1.348179       -36.6858
  53   2.0000      -1.343120       -36.5481
  54   2.0000      -1.330125       -36.1945
  55   2.0000      -1.329533       -36.1784
  56   2.0000      -1.322608       -35.9900
  57   2.0000      -1.319880       -35.9158
  58   2.0000      -1.319600       -35.9081
  59   2.0000      -1.310304       -35.6552
  60   2.0000      -0.967320       -26.3221
  61   2.0000      -0.948192       -25.8016
  62   2.0000      -0.943359       -25.6701
  63   2.0000      -0.937485       -25.5103
  64   2.0000      -0.934267       -25.4227
  65   2.0000      -0.928639       -25.2695
  66   2.0000      -0.927635       -25.2422
  67   2.0000      -0.924688       -25.1620
  68   2.0000      -0.923612       -25.1328
  69   2.0000      -0.923554       -25.1312
  70   2.0000      -0.920378       -25.0448
  71   2.0000      -0.920352       -25.0440
  72   2.0000      -0.918096       -24.9827
  73   2.0000      -0.911648       -24.8072
  74   2.0000      -0.906895       -24.6779
  75   2.0000      -0.899612       -24.4797
  76   2.0000      -0.894247       -24.3337
  77   2.0000      -0.890914       -24.2430
  78   2.0000      -0.887277       -24.1440
  79   2.0000      -0.877106       -23.8673
  80   2.0000      -0.736891       -20.0518
  81   2.0000      -0.730438       -19.8762
  82   2.0000      -0.716502       -19.4970
  83   2.0000      -0.713935       -19.4272
  84   2.0000      -0.713749       -19.4221
  85   2.0000      -0.711653       -19.3651
  86   2.0000      -0.710597       -19.3363
  87   2.0000      -0.701791       -19.0967
  88   2.0000      -0.699125       -19.0242
  89   2.0000      -0.696831       -18.9617
  90   2.0000      -0.691121       -18.8064
  91   2.0000      -0.687907       -18.7189
  92   2.0000      -0.680436       -18.5156
  93   2.0000      -0.675865       -18.3912
  94   2.0000      -0.675267       -18.3750
  95   2.0000      -0.668974       -18.2037
  96   2.0000      -0.664505       -18.0821
  97   2.0000      -0.661956       -18.0127
  98   2.0000      -0.659938       -17.9578
  99   2.0000      -0.659367       -17.9423
 100   2.0000      -0.648172       -17.6377
 101   2.0000      -0.643636       -17.5142
 102   2.0000      -0.640848       -17.4384
 103   2.0000      -0.640272       -17.4227
 104   2.0000      -0.638861       -17.3843
 105   2.0000      -0.636048       -17.3077
 106   2.0000      -0.634029       -17.2528
 107   2.0000      -0.629678       -17.1344
 108   2.0000      -0.628469       -17.1015
 109   2.0000      -0.626179       -17.0392
 110   2.0000      -0.624686       -16.9986
 111   2.0000      -0.621903       -16.9228
 112   2.0000      -0.621263       -16.9054
 113   2.0000      -0.617216       -16.7953
 114   2.0000      -0.616681       -16.7808
 115   2.0000      -0.613639       -16.6980
 116   2.0000      -0.612763       -16.6741
 117   2.0000      -0.611753       -16.6466
 118   2.0000      -0.610176       -16.6037
 119   2.0000      -0.606471       -16.5029
 120   2.0000      -0.605980       -16.4896
 121   2.0000      -0.605411       -16.4741
 122   2.0000      -0.603776       -16.4296
 123   2.0000      -0.602493       -16.3947
 124   2.0000      -0.600437       -16.3387
 125   2.0000      -0.596928       -16.2432
 126   2.0000      -0.594797       -16.1852
 127   2.0000      -0.593315       -16.1449
 128   2.0000      -0.593196       -16.1417
 129   2.0000      -0.589303       -16.0357
 130   2.0000      -0.583204       -15.8698
 131   2.0000      -0.581650       -15.8275
 132   2.0000      -0.580169       -15.7872
 133   2.0000      -0.575238       -15.6530
 134   2.0000      -0.570176       -15.5153
 135   2.0000      -0.569549       -15.4982
 136   2.0000      -0.568999       -15.4832
 137   2.0000      -0.565677       -15.3929
 138   2.0000      -0.554201       -15.0806
 139   2.0000      -0.549234       -14.9454
 140   2.0000      -0.540346       -14.7036
 141   2.0000      -0.533700       -14.5227
 142   2.0000      -0.529483       -14.4080
 143   2.0000      -0.520663       -14.1680
 144   2.0000      -0.518066       -14.0973
 145   2.0000      -0.511902       -13.9296
 146   2.0000      -0.510102       -13.8806
 147   2.0000      -0.506774       -13.7900
 148   2.0000      -0.504580       -13.7303
 149   2.0000      -0.499126       -13.5819
 150   2.0000      -0.497945       -13.5498
 151   2.0000      -0.492683       -13.4066
 152   2.0000      -0.491458       -13.3733
 153   2.0000      -0.488292       -13.2871
 154   2.0000      -0.485102       -13.2003
 155   2.0000      -0.482000       -13.1159
 156   2.0000      -0.479136       -13.0379
 157   2.0000      -0.478225       -13.0132
 158   2.0000      -0.473651       -12.8887
 159   2.0000      -0.472828       -12.8663
 160   2.0000      -0.469787       -12.7836
 161   2.0000      -0.466606       -12.6970
 162   2.0000      -0.463399       -12.6097
 163   2.0000      -0.460936       -12.5427
 164   2.0000      -0.458998       -12.4900
 165   2.0000      -0.455079       -12.3833
 166   2.0000      -0.451437       -12.2842
 167   2.0000      -0.447893       -12.1878
 168   2.0000      -0.447071       -12.1654
 169   2.0000      -0.442442       -12.0395
 170   2.0000      -0.437099       -11.8941
 171   2.0000      -0.434397       -11.8205
 172   2.0000      -0.432877       -11.7792
 173   2.0000      -0.430382       -11.7113
 174   2.0000      -0.428639       -11.6639
 175   2.0000      -0.425474       -11.5777
 176   2.0000      -0.420265       -11.4360
 177   2.0000      -0.419692       -11.4204
 178   2.0000      -0.414097       -11.2681
 179   2.0000      -0.399825       -10.8798
 180   0.0000       0.092725         2.5232
 181   0.0000       0.104518         2.8441
 182   0.0000       0.109010         2.9663
 183   0.0000       0.111304         3.0287
 184   0.0000       0.117264         3.1909

MULLIKEN ATOMIC CHARGES
-----------------------
   0 O :   -0.469223
   1 H :    0.289102
   2 C :   -0.047166
   3 H :    0.069122
   4 H :    0.079835
   5 H :    0.077760
   6 O :   -0.556250
   7 H :    0.313627
   8 C :   -0.175435
   9 H :    0.125630
  10 H :    0.119963
  11 H :    0.134156
  12 O :   -0.462562
  13 H :    0.265353
  14 C :   -0.081429
  15 H :    0.081374
  16 H :    0.072212
  17 H :    0.114684
  18 O :   -0.371075
  19 H :    0.221094
  20 C :   -0.011174
  21 H :    0.043568
  22 H :    0.046217
  23 H :    0.076041
  24 O :   -0.465118
  25 H :    0.266762
  26 C :   -0.055010
  27 H :    0.058530
  28 H :    0.109390
  29 H :    0.078515
  30 O :   -0.444996
  31 H :    0.291172
  32 C :   -0.059153
  33 H :    0.097608
  34 H :    0.073534
  35 H :    0.066871
  36 O :   -0.428141
  37 H :    0.223031
  38 C :   -0.058650
  39 H :    0.132679
  40 H :    0.103804
  41 H :    0.043411
  42 O :   -0.447196
  43 H :    0.231113
  44 C :   -0.012362
  45 H :    0.087907
  46 H :    0.087875
  47 H :    0.037003
  48 O :   -0.459917
  49 H :    0.276047
  50 C :   -0.038599
  51 H :    0.081796
  52 H :    0.046423
  53 H :    0.092106
  54 O :   -0.441250
  55 H :    0.253691
  56 C :   -0.088675
  57 H :    0.094843
  58 H :    0.067889
  59 H :    0.097127
  60 O :   -0.411337
  61 H :    0.207869
  62 C :   -0.014155
  63 H :    0.085613
  64 H :    0.087441
  65 H :    0.038758
  66 O :   -0.386925
  67 H :    0.209282
  68 C :   -0.028752
  69 H :    0.046992
  70 H :    0.063511
  71 H :    0.093975
  72 O :   -0.492274
  73 H :    0.280776
  74 C :   -0.093588
  75 H :    0.137142
  76 H :    0.105720
  77 H :    0.072240
  78 O :   -0.426150
  79 H :    0.257665
  80 C :   -0.048708
  81 H :    0.112664
  82 H :    0.020119
  83 H :    0.058875
  84 O :   -0.379616
  85 H :    0.214289
  86 C :   -0.027455
  87 H :    0.100545
  88 H :    0.018888
  89 H :    0.068293
  90 O :   -0.421714
  91 H :    0.233591
  92 C :   -0.007792
  93 H :    0.078606
  94 H :    0.083595
  95 H :    0.050702
  96 O :   -0.460803
  97 H :    0.281230
  98 C :   -0.070769
  99 H :    0.101069
 100 H :    0.056679
 101 H :    0.069966
 102 O :   -0.453413
 103 H :    0.282577
 104 C :   -0.061344
 105 H :    0.091676
 106 H :    0.070675
 107 H :    0.099315
 108 O :   -0.415965
 109 H :    0.248691
 110 C :   -0.040096
 111 H :    0.071728
 112 H :    0.093814
 113 H :    0.074769
 114 O :   -0.436862
 115 H :    0.240622
 116 C :   -0.079811
 117 H :    0.105722
 118 H :    0.084016
 119 H :    0.102348
Sum of atomic charges:   -0.0000000

LOEWDIN ATOMIC CHARGES
----------------------
   0 O :    0.319511
   1 H :   -0.204296
   2 C :   -0.025573
   3 H :   -0.032044
   4 H :   -0.046254
   5 H :   -0.034242
   6 O :    0.256131
   7 H :   -0.278160
   8 C :    0.055735
   9 H :   -0.046263
  10 H :   -0.055653
  11 H :   -0.067616
  12 O :    0.287711
  13 H :   -0.147625
  14 C :    0.005462
  15 H :   -0.028627
  16 H :   -0.063770
  17 H :   -0.062268
  18 O :    0.362992
  19 H :   -0.187590
  20 C :   -0.029765
  21 H :   -0.048359
  22 H :   -0.052221
  23 H :   -0.037094
  24 O :    0.259900
  25 H :   -0.197169
  26 C :    0.069247
  27 H :   -0.036506
  28 H :   -0.098931
  29 H :   -0.024878
  30 O :    0.373257
  31 H :   -0.146904
  32 C :   -0.013679
  33 H :   -0.038859
  34 H :   -0.039890
  35 H :   -0.023883
  36 O :    0.352883
  37 H :   -0.204959
  38 C :    0.028161
  39 H :   -0.048653
  40 H :   -0.022312
  41 H :   -0.045474
  42 O :    0.252043
  43 H :   -0.168072
  44 C :    0.015323
  45 H :   -0.044642
  46 H :   -0.058793
  47 H :   -0.034388
  48 O :    0.311802
  49 H :   -0.192349
  50 C :    0.011670
  51 H :   -0.037157
  52 H :   -0.034257
  53 H :   -0.069672
  54 O :    0.310567
  55 H :   -0.246972
  56 C :    0.026674
  57 H :   -0.043224
  58 H :   -0.052701
  59 H :   -0.053153
  60 O :    0.340705
  61 H :   -0.262512
  62 C :    0.046302
  63 H :   -0.036117
  64 H :   -0.056821
  65 H :   -0.039064
  66 O :    0.344500
  67 H :   -0.232041
  68 C :    0.004733
  69 H :   -0.017668
  70 H :   -0.046182
  71 H :   -0.060922
  72 O :    0.256804
  73 H :   -0.240822
  74 C :    0.066513
  75 H :   -0.031735
  76 H :   -0.038006
  77 H :   -0.019305
  78 O :    0.312826
  79 H :   -0.120546
  80 C :   -0.048224
  81 H :   -0.055081
  82 H :   -0.037456
  83 H :   -0.069029
  84 O :    0.410416
  85 H :   -0.247017
  86 C :   -0.020930
  87 H :   -0.056610
  88 H :   -0.024458
  89 H :   -0.060752
  90 O :    0.348555
  91 H :   -0.198104
  92 C :   -0.001120
  93 H :   -0.026099
  94 H :   -0.043797
  95 H :   -0.025150
  96 O :    0.278800
  97 H :   -0.207144
  98 C :   -0.013843
  99 H :   -0.037400
 100 H :   -0.078437
 101 H :   -0.043583
 102 O :    0.361915
 103 H :   -0.183132
 104 C :    0.030815
 105 H :   -0.038729
 106 H :   -0.050085
 107 H :   -0.028860
 108 O :    0.314548
 109 H :   -0.140293
 110 C :    0.012235
 111 H :   -0.044208
 112 H :   -0.044324
 113 H :   -0.029689
 114 O :    0.338425
 115 H :   -0.214413
 116 C :    0.070533
 117 H :   -0.061133
 118 H :   -0.029866
 119 H :   -0.052093

  Mayer bond orders larger than 0.100000
B(  0-O ,  1-H ) :   0.9269 B(  0-O ,  2-C ) :   0.9653 B(  2-C ,  3-H ) :   0.9766
B(  2-C ,  4-H ) :   0.9784 B(  2-C ,  5-H ) :   0.9807 B(  6-O ,  7-H ) :   0.8701
B(  6-O ,  8-C ) :   0.9297 B(  8-C ,  9-H ) :   0.9710 B(  8-C , 10-H ) :   0.9692
B(  8-C , 11-H ) :   0.9639 B( 12-O , 13-H ) :   0.9339 B( 12-O , 14-C ) :   0.9573
B( 14-C , 15-H ) :   0.9624 B( 14-C , 16-H ) :   0.9691 B( 14-C , 17-H ) :   0.9939
B( 18-O , 19-H ) :   0.9951 B( 18-O , 20-C ) :   1.0064 B( 20-C , 21-H ) :   0.9647
B( 20-C , 22-H ) :   0.9989 B( 20-C , 23-H ) :   0.9687 B( 24-O , 25-H ) :   0.9518
B( 24-O , 26-C ) :   0.9735 B( 26-C , 27-H ) :   0.9783 B( 26-C , 28-H ) :   0.9690
B( 26-C , 29-H ) :   0.9830 B( 30-O , 31-H ) :   0.8991 B( 30-O , 32-C ) :   0.9659
B( 32-C , 33-H ) :   0.9762 B( 32-C , 34-H ) :   0.9796 B( 32-C , 35-H ) :   0.9800
B( 36-O , 37-H ) :   0.9794 B( 36-O , 38-C ) :   0.9273 B( 38-C , 39-H ) :   0.9619
B( 38-C , 40-H ) :   0.9925 B( 38-C , 41-H ) :   0.9797 B( 42-O , 43-H ) :   0.9867
B( 42-O , 44-C ) :   0.9611 B( 44-C , 45-H ) :   0.9752 B( 44-C , 46-H ) :   0.9646
B( 44-C , 47-H ) :   0.9848 B( 48-O , 49-H ) :   0.9285 B( 48-O , 50-C ) :   0.9713
B( 50-C , 51-H ) :   0.9806 B( 50-C , 52-H ) :   0.9743 B( 50-C , 53-H ) :   0.9805
B( 54-O , 55-H ) :   0.9599 B( 54-O , 56-C ) :   0.9808 B( 56-C , 57-H ) :   0.9813
B( 56-C , 58-H ) :   0.9719 B( 56-C , 59-H ) :   0.9864 B( 60-O , 61-H ) :   1.0133
B( 60-O , 62-C ) :   0.9559 B( 62-C , 63-H ) :   0.9740 B( 62-C , 64-H ) :   0.9668
B( 62-C , 65-H ) :   0.9846 B( 66-O , 67-H ) :   1.0051 B( 66-O , 68-C ) :   0.9772
B( 68-C , 69-H ) :   0.9806 B( 68-C , 70-H ) :   0.9955 B( 68-C , 71-H ) :   0.9553
B( 72-O , 73-H ) :   0.9515 B( 72-O , 74-C ) :   0.9257 B( 74-C , 75-H ) :   0.9768
B( 74-C , 76-H ) :   0.9790 B( 74-C , 77-H ) :   0.9737 B( 78-O , 79-H ) :   0.9451
B( 78-O , 80-C ) :   0.9991 B( 80-C , 81-H ) :   0.9764 B( 80-C , 82-H ) :   0.9634
B( 80-C , 83-H ) :   0.9783 B( 84-O , 85-H ) :   1.0070 B( 84-O , 86-C ) :   0.9908
B( 86-C , 87-H ) :   0.9710 B( 86-C , 88-H ) :   0.9680 B( 86-C , 89-H ) :   0.9875
B( 90-O , 91-H ) :   0.9850 B( 90-O , 92-C ) :   0.9341 B( 92-C , 93-H ) :   0.9740
B( 92-C , 94-H ) :   0.9725 B( 92-C , 95-H ) :   0.9939 B( 96-O , 97-H ) :   0.9248
B( 96-O , 98-C ) :   0.9825 B( 98-C , 99-H ) :   0.9768 B( 98-C ,100-H ) :   0.9673
B( 98-C ,101-H ) :   0.9916 B(102-O ,103-H ) :   0.9358 B(102-O ,104-C ) :   0.9490
B(104-C ,105-H ) :   0.9726 B(104-C ,106-H ) :   0.9842 B(104-C ,107-H ) :   0.9849
B(108-O ,109-H ) :   0.9732 B(108-O ,110-C ) :   0.9617 B(110-C ,111-H ) :   0.9710
B(110-C ,112-H ) :   0.9757 B(110-C ,113-H ) :   0.9905 B(114-O ,115-H ) :   0.9725
B(114-O ,116-C ) :   0.9401 B(116-C ,117-H ) :   0.9689 B(116-C ,118-H ) :   0.9961
B(116-C ,119-H ) :   0.9731

MP2 TOTAL ENERGY:    -2310.357673200 Eh
FINAL SINGLE POINT ENERGY     -2310.357673199821

DIPOLE MOMENT
-------------
                                X             Y             Z
Electronic contribution:     -3.45021       4.94293      -1.54414
Nuclear contribution   :      4.46199      -9.51896       2.56555
                        -----------------------------------------
Total Dipole Moment    :      1.01178      -4.57603       1.02141
                        -----------------------------------------
Magnitude (a.u.)       :      4.79657
Magnitude (Debye)      :     12.19191

Rotational constants in cm-1:     0.001526     0.001278     0.001143
Rotational constants in MHz :    45.761137    38.301959    34.263271

                             ****ORCA TERMINATED NORMALLY****
TOTAL RUN TIME: 0 days 1 hours 33 minutes 17 seconds 453 msec
