                         Program Version 4.2.0 -  RELEASE  -
|  1> ! RI-MP2 cc-pVTZ cc-pVTZ/C TightSCF FrozenCore
|  2>
|  3> %pal nprocs 24 end
|  4> %maxcore 8000
|  5> %scf ConvForced true end
|  6>
|  7> *xyz  0  1
|  8> O     0.00000     0.00000     0.00000
|  9> H    -0.92340     0.36802    -0.03410
| 10> C    -0.00910    -1.22295     0.80545
| 11> H     0.71437    -1.93857     0.42668
| 12> H    -0.95375    -1.65957     0.70552
| 13> H     0.10144    -0.94047     1.78688
| 14> O    -2.47976     1.59256    -0.50350
| 15> H    -2.85007     1.51381    -1.41053
| 16> C    -2.27835     2.95621    -0.28364
| 17> H    -1.26315     3.06556     0.09519
| 18> H    -2.91987     3.27961     0.50489
| 19> H    -2.46936     3.63803    -1.17117
| 20> O     3.57721     1.41120    -0.00974
| 21> H     3.52240     2.32355    -0.30472
| 22> C     2.93261     1.26950     1.23530
| 23> H     2.90524     0.27627     1.49151
| 24> H     1.89840     1.59963     1.17248
| 25> H     3.48585     1.76996     2.02795
| 26> O     4.11498    -0.72771    -1.20887
| 27> H     4.15906     0.13327    -0.80981
| 28> C     4.54367    -1.68454    -0.21445
| 29> H     4.68743    -2.65208    -0.77260
| 30> H     3.83251    -1.77111     0.58213
| 31> H     5.44278    -1.32874     0.20794
| 32> O     1.17707    -1.95393    -3.99267
| 33> H     1.25914    -1.02366    -4.27401
| 34> C     0.82914    -1.93661    -2.69079
| 35> H     0.68055    -2.92313    -2.34558
| 36> H    -0.15618    -1.57971    -2.43332
| 37> H     1.59742    -1.44539    -2.06759
| 38> O     1.30004     3.52731    -2.66166
| 39> H     0.48479     4.05562    -2.70124
| 40> C     0.84889     2.29546    -1.96977
| 41> H     1.47596     1.41474    -2.33135
| 42> H    -0.21972     2.02477    -2.19752
| 43> H     0.94273     2.34978    -0.82318
| 44> O    -0.81265    -3.21447     3.26849
| 45> H    -0.26438    -2.73710     3.86297
| 46> C    -2.16342    -3.06724     3.72919
| 47> H    -2.77357    -3.77319     3.16591
| 48> H    -2.56293    -2.04152     3.49010
| 49> H    -2.22280    -3.22058     4.83347
| 50> O    -4.55299     0.52183     1.77866
| 51> H    -5.09914     1.30683     1.69298
| 52> C    -4.87106    -0.44777     0.76806
| 53> H    -5.08683    -1.40695     1.30932
| 54> H    -3.99348    -0.58150     0.05676
| 55> H    -5.73913    -0.14625     0.21516
| 56> O    -0.79540    -0.53366     4.83053
| 57> H     0.13336    -0.60731     5.10276
| 58> C    -0.87230     0.57879     4.02403
| 59> H    -1.96554     0.97697     4.00653
| 60> H    -0.58332     0.29012     3.02657
| 61> H    -0.24217     1.33503     4.42466
| 62> O    -3.91999     1.57330    -2.81212
| 63> H    -4.29793     2.34496    -3.29730
| 64> C    -4.71514     0.40438    -2.68792
| 65> H    -4.70513     0.16412    -1.62700
| 66> H    -4.32474    -0.40623    -3.26470
| 67> H    -5.76801     0.59040    -3.06935
| 68> O    -0.54060    -5.12842    -1.48998
| 69> H    -0.66979    -5.80560    -2.18527
| 70> C    -1.52945    -4.21208    -1.69126
| 71> H    -1.42889    -3.53951    -0.83823
| 72> H    -2.51441    -4.69987    -1.73655
| 73> H    -1.30124    -3.69102    -2.61339
| 74> O     2.26039    -1.47475     4.95600
| 75> H     3.05098    -1.05381     5.29103
| 76> C     2.73297    -2.52335     4.14088
| 77> H     2.05359    -2.64399     3.24700
| 78> H     2.69424    -3.42331     4.65110
| 79> H     3.77026    -2.27344     3.80986
| 80> O     1.14229    -5.61741     0.83548
| 81> H     0.61245    -5.32757     0.02652
| 82> C     1.38618    -7.02899     0.90045
| 83> H     2.34714    -7.22823     1.33384
| 84> H     1.35168    -7.48860    -0.08077
| 85> H     0.63803    -7.51101     1.50264
| 86> O     5.36956    -0.33472     2.66391
| 87> H     6.09419    -0.04009     2.02242
| 88> C     5.47274     0.43454     3.81265
| 89> H     5.28097    -0.13930     4.69354
| 90> H     4.68606     1.17368     3.76824
| 91> H     6.49040     0.90171     3.87937
| 92> O     0.31555     2.49017    -5.75296
| 93> H     0.93428     3.14001    -5.25090
| 94> C    -0.68820     2.12688    -4.87349
| 95> H    -1.63782     2.01947    -5.36640
| 96> H    -0.79728     2.86040    -4.05818
| 97> H    -0.45948     1.14331    -4.44965
| 98> O     5.26544     2.66494    -3.00285
| 99> H     4.71050     2.53502    -3.76970
|100> C     4.84820     3.80762    -2.36403
|101> H     4.97840     3.67453    -1.30397
|102> H     3.80599     3.93963    -2.48446
|103> H     5.46050     4.68810    -2.70042
|104> O     0.28228     5.76137     3.30314
|105> H     0.00617     6.50308     2.65073
|106> C     0.56879     4.55236     2.50551
|107> H     0.77897     3.79415     3.23925
|108> H     1.45381     4.81796     1.98070
|109> H    -0.24375     4.28241     1.73822
|110> O     4.23395     1.41788    -5.26071
|111> H     3.51186     1.39068    -5.89444
|112> C     4.04979     0.35976    -4.34983
|113> H     4.77924     0.51422    -3.57089
|114> H     4.20369    -0.57623    -4.81044
|115> H     3.09310     0.40974    -3.94331
|116> O    -6.10886     2.95696     1.46304
|117> H    -6.86795     2.48521     1.42713
|118> C    -6.16714     4.11590     0.52390
|119> H    -5.38834     4.05314    -0.25978
|120> H    -6.04794     5.07249     1.09299
|121> H    -7.14745     4.10872    -0.03653
|122> O    -2.98030     4.73308     4.53953
|123> H    -3.30110     4.02955     5.12263
|124> C    -3.64120     4.43000     3.29781
|125> H    -3.10094     4.98003     2.45703
|126> H    -4.65417     4.75756     3.36448
|127> H    -3.63074     3.32548     3.12808
|128> *
|129>
|130>                          ****END OF INPUT****

CARTESIAN COORDINATES (ANGSTROEM)
---------------------------------
  O      0.000000    0.000000    0.000000
  H     -0.923400    0.368020   -0.034100
  C     -0.009100   -1.222950    0.805450
  H      0.714370   -1.938570    0.426680
  H     -0.953750   -1.659570    0.705520
  H      0.101440   -0.940470    1.786880
  O     -2.479760    1.592560   -0.503500
  H     -2.850070    1.513810   -1.410530
  C     -2.278350    2.956210   -0.283640
  H     -1.263150    3.065560    0.095190
  H     -2.919870    3.279610    0.504890
  H     -2.469360    3.638030   -1.171170
  O      3.577210    1.411200   -0.009740
  H      3.522400    2.323550   -0.304720
  C      2.932610    1.269500    1.235300
  H      2.905240    0.276270    1.491510
  H      1.898400    1.599630    1.172480
  H      3.485850    1.769960    2.027950
  O      4.114980   -0.727710   -1.208870
  H      4.159060    0.133270   -0.809810
  C      4.543670   -1.684540   -0.214450
  H      4.687430   -2.652080   -0.772600
  H      3.832510   -1.771110    0.582130
  H      5.442780   -1.328740    0.207940
  O      1.177070   -1.953930   -3.992670
  H      1.259140   -1.023660   -4.274010
  C      0.829140   -1.936610   -2.690790
  H      0.680550   -2.923130   -2.345580
  H     -0.156180   -1.579710   -2.433320
  H      1.597420   -1.445390   -2.067590
  O      1.300040    3.527310   -2.661660
  H      0.484790    4.055620   -2.701240
  C      0.848890    2.295460   -1.969770
  H      1.475960    1.414740   -2.331350
  H     -0.219720    2.024770   -2.197520
  H      0.942730    2.349780   -0.823180
  O     -0.812650   -3.214470    3.268490
  H     -0.264380   -2.737100    3.862970
  C     -2.163420   -3.067240    3.729190
  H     -2.773570   -3.773190    3.165910
  H     -2.562930   -2.041520    3.490100
  H     -2.222800   -3.220580    4.833470
  O     -4.552990    0.521830    1.778660
  H     -5.099140    1.306830    1.692980
  C     -4.871060   -0.447770    0.768060
  H     -5.086830   -1.406950    1.309320
  H     -3.993480   -0.581500    0.056760
  H     -5.739130   -0.146250    0.215160
  O     -0.795400   -0.533660    4.830530
  H      0.133360   -0.607310    5.102760
  C     -0.872300    0.578790    4.024030
  H     -1.965540    0.976970    4.006530
  H     -0.583320    0.290120    3.026570
  H     -0.242170    1.335030    4.424660
  O     -3.919990    1.573300   -2.812120
  H     -4.297930    2.344960   -3.297300
  C     -4.715140    0.404380   -2.687920
  H     -4.705130    0.164120   -1.627000
  H     -4.324740   -0.406230   -3.264700
  H     -5.768010    0.590400   -3.069350
  O     -0.540600   -5.128420   -1.489980
  H     -0.669790   -5.805600   -2.185270
  C     -1.529450   -4.212080   -1.691260
  H     -1.428890   -3.539510   -0.838230
  H     -2.514410   -4.699870   -1.736550
  H     -1.301240   -3.691020   -2.613390
  O      2.260390   -1.474750    4.956000
  H      3.050980   -1.053810    5.291030
  C      2.732970   -2.523350    4.140880
  H      2.053590   -2.643990    3.247000
  H      2.694240   -3.423310    4.651100
  H      3.770260   -2.273440    3.809860
  O      1.142290   -5.617410    0.835480
  H      0.612450   -5.327570    0.026520
  C      1.386180   -7.028990    0.900450
  H      2.347140   -7.228230    1.333840
  H      1.351680   -7.488600   -0.080770
  H      0.638030   -7.511010    1.502640
  O      5.369560   -0.334720    2.663910
  H      6.094190   -0.040090    2.022420
  C      5.472740    0.434540    3.812650
  H      5.280970   -0.139300    4.693540
  H      4.686060    1.173680    3.768240
  H      6.490400    0.901710    3.879370
  O      0.315550    2.490170   -5.752960
  H      0.934280    3.140010   -5.250900
  C     -0.688200    2.126880   -4.873490
  H     -1.637820    2.019470   -5.366400
  H     -0.797280    2.860400   -4.058180
  H     -0.459480    1.143310   -4.449650
  O      5.265440    2.664940   -3.002850
  H      4.710500    2.535020   -3.769700
  C      4.848200    3.807620   -2.364030
  H      4.978400    3.674530   -1.303970
  H      3.805990    3.939630   -2.484460
  H      5.460500    4.688100   -2.700420
  O      0.282280    5.761370    3.303140
  H      0.006170    6.503080    2.650730
  C      0.568790    4.552360    2.505510
  H      0.778970    3.794150    3.239250
  H      1.453810    4.817960    1.980700
  H     -0.243750    4.282410    1.738220
  O      4.233950    1.417880   -5.260710
  H      3.511860    1.390680   -5.894440
  C      4.049790    0.359760   -4.349830
  H      4.779240    0.514220   -3.570890
  H      4.203690   -0.576230   -4.810440
  H      3.093100    0.409740   -3.943310
  O     -6.108860    2.956960    1.463040
  H     -6.867950    2.485210    1.427130
  C     -6.167140    4.115900    0.523900
  H     -5.388340    4.053140   -0.259780
  H     -6.047940    5.072490    1.092990
  H     -7.147450    4.108720   -0.036530
  O     -2.980300    4.733080    4.539530
  H     -3.301100    4.029550    5.122630
  C     -3.641200    4.430000    3.297810
  H     -3.100940    4.980030    2.457030
  H     -4.654170    4.757560    3.364480
  H     -3.630740    3.325480    3.128080

 Total Charge           Charge          ....    0
 Multiplicity           Mult            ....    1
 Number of Electrons    NEL             ....  360
 Basis Dimension        Dim             .... 2320

ORBITAL ENERGIES
----------------

  NO   OCC          E(Eh)            E(eV)
   0   2.0000     -20.602414      -560.6202
   1   2.0000     -20.588874      -560.2517
   2   2.0000     -20.575517      -559.8883
   3   2.0000     -20.569162      -559.7153
   4   2.0000     -20.565315      -559.6107
   5   2.0000     -20.560770      -559.4870
   6   2.0000     -20.560557      -559.4812
   7   2.0000     -20.558650      -559.4293
   8   2.0000     -20.555443      -559.3420
   9   2.0000     -20.549812      -559.1888
  10   2.0000     -20.543790      -559.0249
  11   2.0000     -20.541513      -558.9630
  12   2.0000     -20.536880      -558.8369
  13   2.0000     -20.534836      -558.7813
  14   2.0000     -20.533713      -558.7507
  15   2.0000     -20.521381      -558.4152
  16   2.0000     -20.520163      -558.3820
  17   2.0000     -20.513956      -558.2131
  18   2.0000     -20.506106      -557.9995
  19   2.0000     -20.487592      -557.4957
  20   2.0000     -11.322720      -308.1069
  21   2.0000     -11.305804      -307.6466
  22   2.0000     -11.285859      -307.1038
  23   2.0000     -11.278199      -306.8954
  24   2.0000     -11.277466      -306.8755
  25   2.0000     -11.277019      -306.8633
  26   2.0000     -11.273825      -306.7764
  27   2.0000     -11.271183      -306.7045
  28   2.0000     -11.269850      -306.6682
  29   2.0000     -11.268459      -306.6304
  30   2.0000     -11.259784      -306.3943
  31   2.0000     -11.251938      -306.1808
  32   2.0000     -11.250841      -306.1510
  33   2.0000     -11.247591      -306.0625
  34   2.0000     -11.239969      -305.8551
  35   2.0000     -11.237333      -305.7834
  36   2.0000     -11.231117      -305.6142
  37   2.0000     -11.229189      -305.5618
  38   2.0000     -11.225973      -305.4742
  39   2.0000     -11.223784      -305.4147
  40   2.0000      -1.398821       -38.0638
  41   2.0000      -1.392051       -37.8796
  42   2.0000      -1.391381       -37.8614
  43   2.0000      -1.370018       -37.2801
  44   2.0000      -1.369005       -37.2525
  45   2.0000      -1.366722       -37.1904
  46   2.0000      -1.364980       -37.1430
  47   2.0000      -1.359045       -36.9815
  48   2.0000      -1.358748       -36.9734
  49   2.0000      -1.353846       -36.8400
  50   2.0000      -1.353247       -36.8237
  51   2.0000      -1.351317       -36.7712
  52   2.0000      -1.339431       -36.4478
  53   2.0000      -1.337815       -36.4038
  54   2.0000      -1.333767       -36.2936
  55   2.0000      -1.323926       -36.0258
  56   2.0000      -1.315452       -35.7953
  57   2.0000      -1.303985       -35.4832
  58   2.0000      -1.293899       -35.2088
  59   2.0000      -1.291569       -35.1454
  60   2.0000      -0.964336       -26.2409
  61   2.0000      -0.961274       -26.1576
  62   2.0000      -0.932574       -25.3766
  63   2.0000      -0.931503       -25.3475
  64   2.0000      -0.930475       -25.3195
  65   2.0000      -0.927253       -25.2318
  66   2.0000      -0.924376       -25.1535
  67   2.0000      -0.917276       -24.9604
  68   2.0000      -0.916902       -24.9502
  69   2.0000      -0.915519       -24.9125
  70   2.0000      -0.912410       -24.8279
  71   2.0000      -0.911144       -24.7935
  72   2.0000      -0.907904       -24.7053
  73   2.0000      -0.904546       -24.6139
  74   2.0000      -0.900448       -24.5024
  75   2.0000      -0.898985       -24.4626
  76   2.0000      -0.897787       -24.4300
  77   2.0000      -0.896352       -24.3910
  78   2.0000      -0.888973       -24.1902
  79   2.0000      -0.884966       -24.0812
  80   2.0000      -0.741596       -20.1798
  81   2.0000      -0.725698       -19.7473
  82   2.0000      -0.715384       -19.4666
  83   2.0000      -0.709926       -19.3181
  84   2.0000      -0.701808       -19.0972
  85   2.0000      -0.699614       -19.0375
  86   2.0000      -0.699033       -19.0217
  87   2.0000      -0.695518       -18.9260
  88   2.0000      -0.691559       -18.8183
  89   2.0000      -0.688786       -18.7428
  90   2.0000      -0.680140       -18.5076
  91   2.0000      -0.679387       -18.4871
  92   2.0000      -0.677032       -18.4230
  93   2.0000      -0.671749       -18.2792
  94   2.0000      -0.662099       -18.0166
  95   2.0000      -0.661370       -17.9968
  96   2.0000      -0.660905       -17.9842
  97   2.0000      -0.659788       -17.9537
  98   2.0000      -0.655654       -17.8413
  99   2.0000      -0.654383       -17.8067
 100   2.0000      -0.650663       -17.7054
 101   2.0000      -0.646307       -17.5869
 102   2.0000      -0.642987       -17.4966
 103   2.0000      -0.641387       -17.4530
 104   2.0000      -0.636771       -17.3274
 105   2.0000      -0.629433       -17.1278
 106   2.0000      -0.628429       -17.1004
 107   2.0000      -0.627535       -17.0761
 108   2.0000      -0.626981       -17.0610
 109   2.0000      -0.620974       -16.8976
 110   2.0000      -0.618403       -16.8276
 111   2.0000      -0.614535       -16.7223
 112   2.0000      -0.613561       -16.6958
 113   2.0000      -0.612871       -16.6771
 114   2.0000      -0.610340       -16.6082
 115   2.0000      -0.609266       -16.5790
 116   2.0000      -0.607706       -16.5365
 117   2.0000      -0.604382       -16.4461
 118   2.0000      -0.603284       -16.4162
 119   2.0000      -0.602749       -16.4016
 120   2.0000      -0.597338       -16.2544
 121   2.0000      -0.596741       -16.2381
 122   2.0000      -0.595516       -16.2048
 123   2.0000      -0.594256       -16.1705
 124   2.0000      -0.592734       -16.1291
 125   2.0000      -0.586341       -15.9552
 126   2.0000      -0.583380       -15.8746
 127   2.0000      -0.583078       -15.8663
 128   2.0000      -0.581486       -15.8230
 129   2.0000      -0.579357       -15.7651
 130   2.0000      -0.578414       -15.7394
 131   2.0000      -0.575279       -15.6541
 132   2.0000      -0.574700       -15.6384
 133   2.0000      -0.571531       -15.5522
 134   2.0000      -0.570358       -15.5202
 135   2.0000      -0.562431       -15.3045
 136   2.0000      -0.560433       -15.2502
 137   2.0000      -0.558743       -15.2042
 138   2.0000      -0.553791       -15.0694
 139   2.0000      -0.540629       -14.7113
 140   2.0000      -0.536483       -14.5984
 141   2.0000      -0.536226       -14.5914
 142   2.0000      -0.511983       -13.9318
 143   2.0000      -0.510226       -13.8839
 144   2.0000      -0.509991       -13.8775
 145   2.0000      -0.506948       -13.7947
 146   2.0000      -0.503929       -13.7126
 147   2.0000      -0.502674       -13.6785
 148   2.0000      -0.498837       -13.5740
 149   2.0000      -0.495490       -13.4830
 150   2.0000      -0.495237       -13.4761
 151   2.0000      -0.494373       -13.4526
 152   2.0000      -0.492752       -13.4085
 153   2.0000      -0.490553       -13.3486
 154   2.0000      -0.483736       -13.1631
 155   2.0000      -0.477846       -13.0028
 156   2.0000      -0.473582       -12.8868
 157   2.0000      -0.471364       -12.8265
 158   2.0000      -0.467498       -12.7213
 159   2.0000      -0.463452       -12.6112
 160   2.0000      -0.458061       -12.4645
 161   2.0000      -0.457741       -12.4558
 162   2.0000      -0.456035       -12.4093
 163   2.0000      -0.451348       -12.2818
 164   2.0000      -0.451128       -12.2758
 165   2.0000      -0.450544       -12.2599
 166   2.0000      -0.448628       -12.2078
 167   2.0000      -0.448372       -12.2008
 168   2.0000      -0.443024       -12.0553
 169   2.0000      -0.442592       -12.0435
 170   2.0000      -0.437789       -11.9128
 171   2.0000      -0.436654       -11.8819
 172   2.0000      -0.433587       -11.7985
 173   2.0000      -0.430795       -11.7225
 174   2.0000      -0.423396       -11.5212
 175   2.0000      -0.416845       -11.3429
 176   2.0000      -0.413595       -11.2545
 177   2.0000      -0.413188       -11.2434
 178   2.0000      -0.407833       -11.0977
 179   2.0000      -0.397730       -10.8228
 180   0.0000       0.080652         2.1946
 181   0.0000       0.103463         2.8154
 182   0.0000       0.110710         3.0126
 183   0.0000       0.112566         3.0631
 184   0.0000       0.116927         3.1818

MULLIKEN ATOMIC CHARGES
-----------------------
   0 O :   -0.500987
   1 H :    0.281593
   2 C :   -0.151963
   3 H :    0.124719
   4 H :    0.120519
   5 H :    0.127883
   6 O :   -0.465727
   7 H :    0.302586
   8 C :   -0.117293
   9 H :    0.091963
  10 H :    0.132791
  11 H :    0.046895
  12 O :   -0.394992
  13 H :    0.235571
  14 C :   -0.112005
  15 H :    0.150281
  16 H :    0.083592
  17 H :    0.080311
  18 O :   -0.474607
  19 H :    0.271596
  20 C :   -0.089006
  21 H :    0.096004
  22 H :    0.081232
  23 H :    0.082303
  24 O :   -0.400929
  25 H :    0.233369
  26 C :   -0.056591
  27 H :    0.111165
  28 H :    0.019923
  29 H :    0.077633
  30 O :   -0.445753
  31 H :    0.224646
  32 C :   -0.080021
  33 H :    0.124418
  34 H :    0.093596
  35 H :    0.096714
  36 O :   -0.421559
  37 H :    0.234512
  38 C :   -0.048261
  39 H :    0.095296
  40 H :    0.062164
  41 H :    0.075331
  42 O :   -0.434168
  43 H :    0.253481
  44 C :   -0.010549
  45 H :    0.076724
  46 H :    0.047444
  47 H :    0.058166
  48 O :   -0.424692
  49 H :    0.246226
  50 C :   -0.043609
  51 H :    0.072989
  52 H :    0.053259
  53 H :    0.085409
  54 O :   -0.439754
  55 H :    0.246958
  56 C :   -0.035395
  57 H :    0.082936
  58 H :    0.099639
  59 H :    0.069443
  60 O :   -0.391987
  61 H :    0.230463
  62 C :   -0.082898
  63 H :    0.100829
  64 H :    0.083248
  65 H :    0.084300
  66 O :   -0.433069
  67 H :    0.231195
  68 C :   -0.083305
  69 H :    0.092749
  70 H :    0.122183
  71 H :    0.079328
  72 O :   -0.476119
  73 H :    0.287786
  74 C :   -0.008739
  75 H :    0.078275
  76 H :    0.042214
  77 H :    0.055570
  78 O :   -0.404124
  79 H :    0.252532
  80 C :   -0.053676
  81 H :    0.076327
  82 H :    0.061415
  83 H :    0.078271
  84 O :   -0.440731
  85 H :    0.260322
  86 C :    0.013787
  87 H :    0.086588
  88 H :    0.019240
  89 H :    0.042797
  90 O :   -0.416431
  91 H :    0.259438
  92 C :   -0.049318
  93 H :    0.049319
  94 H :    0.069322
  95 H :    0.056352
  96 O :   -0.442038
  97 H :    0.228670
  98 C :   -0.039266
  99 H :    0.114770
 100 H :    0.101774
 101 H :    0.035971
 102 O :   -0.429108
 103 H :    0.224305
 104 C :   -0.077499
 105 H :    0.122869
 106 H :    0.105005
 107 H :    0.055407
 108 O :   -0.411898
 109 H :    0.206345
 110 C :   -0.041096
 111 H :    0.080793
 112 H :    0.096661
 113 H :    0.091772
 114 O :   -0.410440
 115 H :    0.222066
 116 C :   -0.028196
 117 H :    0.055723
 118 H :    0.088416
 119 H :    0.072119
Sum of atomic charges:   -0.0000000

LOEWDIN ATOMIC CHARGES
----------------------
   0 O :    0.247821
   1 H :   -0.197331
   2 C :    0.080327
   3 H :   -0.027958
   4 H :   -0.060193
   5 H :   -0.082234
   6 O :    0.343415
   7 H :   -0.242346
   8 C :   -0.016136
   9 H :   -0.047437
  10 H :   -0.055127
  11 H :   -0.033590
  12 O :    0.449884
  13 H :   -0.191226
  14 C :    0.041892
  15 H :   -0.058507
  16 H :   -0.045129
  17 H :   -0.044429
  18 O :    0.305988
  19 H :   -0.345538
  20 C :    0.038139
  21 H :   -0.020094
  22 H :   -0.059437
  23 H :   -0.070675
  24 O :    0.353573
  25 H :   -0.172612
  26 C :   -0.052484
  27 H :   -0.054224
  28 H :   -0.062484
  29 H :   -0.035180
  30 O :    0.255202
  31 H :   -0.202639
  32 C :    0.034693
  33 H :   -0.015921
  34 H :   -0.038157
  35 H :   -0.026309
  36 O :    0.330688
  37 H :   -0.246025
  38 C :    0.017420
  39 H :   -0.046041
  40 H :   -0.034778
  41 H :   -0.037021
  42 O :    0.298440
  43 H :   -0.250829
  44 C :    0.016481
  45 H :   -0.030638
  46 H :   -0.032690
  47 H :   -0.067643
  48 O :    0.340875
  49 H :   -0.191676
  50 C :   -0.023279
  51 H :   -0.007074
  52 H :   -0.058384
  53 H :   -0.062815
  54 O :    0.349325
  55 H :   -0.156102
  56 C :    0.034959
  57 H :   -0.042578
  58 H :   -0.047478
  59 H :   -0.022035
  60 O :    0.381913
  61 H :   -0.153403
  62 C :   -0.029449
  63 H :   -0.028391
  64 H :   -0.042170
  65 H :   -0.046969
  66 O :    0.322963
  67 H :   -0.205251
  68 C :    0.022652
  69 H :   -0.014061
  70 H :   -0.072122
  71 H :   -0.028262
  72 O :    0.232611
  73 H :   -0.182316
  74 C :    0.026252
  75 H :   -0.046594
  76 H :   -0.053466
  77 H :   -0.054937
  78 O :    0.293856
  79 H :   -0.116959
  80 C :   -0.018167
  81 H :   -0.056101
  82 H :   -0.056084
  83 H :   -0.026457
  84 O :    0.258682
  85 H :   -0.102316
  86 C :   -0.027330
  87 H :   -0.049080
  88 H :   -0.050222
  89 H :   -0.044596
  90 O :    0.357118
  91 H :   -0.232634
  92 C :   -0.026096
  93 H :   -0.056359
  94 H :   -0.066719
  95 H :   -0.035236
  96 O :    0.202342
  97 H :   -0.126797
  98 C :    0.058884
  99 H :   -0.042132
 100 H :   -0.064665
 101 H :   -0.026967
 102 O :    0.347493
 103 H :   -0.196326
 104 C :    0.040316
 105 H :   -0.030311
 106 H :   -0.053384
 107 H :   -0.074847
 108 O :    0.390516
 109 H :   -0.310871
 110 C :    0.081735
 111 H :   -0.036875
 112 H :   -0.025634
 113 H :   -0.025541
 114 O :    0.287397
 115 H :   -0.189959
 116 C :    0.021075
 117 H :   -0.025453
 118 H :   -0.065071
 119 H :   -0.033867

  Mayer bond orders larger than 0.100000
B(  0-O ,  1-H ) :   0.9277 B(  0-O ,  2-C ) :   0.9476 B(  2-C ,  3-H ) :   0.9796
B(  2-C ,  4-H ) :   0.9808 B(  2-C ,  5-H ) :   0.9786 B(  6-O ,  7-H ) :   0.9057
B(  6-O ,  8-C ) :   0.9689 B(  8-C ,  9-H ) :   0.9795 B(  8-C , 10-H ) :   0.9709
B(  8-C , 11-H ) :   0.9839 B( 12-O , 13-H ) :   0.9626 B( 12-O , 14-C ) :   0.9421
B( 14-C , 15-H ) :   0.9647 B( 14-C , 16-H ) :   0.9675 B( 14-C , 17-H ) :   0.9872
B( 18-O , 19-H ) :   0.9098 B( 18-O , 20-C ) :   0.9849 B( 20-C , 21-H ) :   0.9865
B( 20-C , 22-H ) :   0.9594 B( 20-C , 23-H ) :   0.9870 B( 24-O , 25-H ) :   0.9887
B( 24-O , 26-C ) :   0.9867 B( 26-C , 27-H ) :   0.9731 B( 26-C , 28-H ) :   0.9647
B( 26-C , 29-H ) :   0.9570 B( 30-O , 31-H ) :   0.9905 B( 30-O , 32-C ) :   0.9080
B( 32-C , 33-H ) :   0.9639 B( 32-C , 34-H ) :   0.9671 B( 32-C , 35-H ) :   0.9933
B( 36-O , 37-H ) :   0.9829 B( 36-O , 38-C ) :   0.9746 B( 38-C , 39-H ) :   0.9796
B( 38-C , 40-H ) :   0.9669 B( 38-C , 41-H ) :   0.9876 B( 42-O , 43-H ) :   0.9594
B( 42-O , 44-C ) :   0.9987 B( 44-C , 45-H ) :   0.9742 B( 44-C , 46-H ) :   0.9615
B( 44-C , 47-H ) :   0.9839 B( 48-O , 49-H ) :   0.9570 B( 48-O , 50-C ) :   0.9830
B( 50-C , 51-H ) :   0.9864 B( 50-C , 52-H ) :   0.9627 B( 50-C , 53-H ) :   0.9972
B( 54-O , 55-H ) :   0.9672 B( 54-O , 56-C ) :   0.9333 B( 56-C , 57-H ) :   0.9718
B( 56-C , 58-H ) :   0.9686 B( 56-C , 59-H ) :   0.9938 B( 60-O , 61-H ) :   0.9764
B( 60-O , 62-C ) :   0.9427 B( 62-C , 63-H ) :   0.9762 B( 62-C , 64-H ) :   0.9871
B( 62-C , 65-H ) :   0.9792 B( 66-O , 67-H ) :   0.9881 B( 66-O , 68-C ) :   0.9263
B( 68-C , 69-H ) :   0.9716 B( 68-C , 70-H ) :   0.9730 B( 68-C , 71-H ) :   0.9808
B( 72-O , 73-H ) :   0.9229 B( 72-O , 74-C ) :   0.9937 B( 74-C , 75-H ) :   0.9768
B( 74-C , 76-H ) :   0.9788 B( 74-C , 77-H ) :   0.9673 B( 78-O , 79-H ) :   0.9663
B( 78-O , 80-C ) :   0.9984 B( 80-C , 81-H ) :   0.9747 B( 80-C , 82-H ) :   0.9622
B( 80-C , 83-H ) :   0.9954 B( 84-O , 85-H ) :   0.9563 B( 84-O , 86-C ) :   1.0001
B( 86-C , 87-H ) :   0.9755 B( 86-C , 88-H ) :   0.9858 B( 86-C , 89-H ) :   0.9679
B( 90-O , 91-H ) :   0.9404 B( 90-O , 92-C ) :   1.0103 B( 92-C , 93-H ) :   0.9762
B( 92-C , 94-H ) :   0.9678 B( 92-C , 95-H ) :   0.9779 B( 96-O , 97-H ) :   0.9871
B( 96-O , 98-C ) :   0.9556 B( 98-C , 99-H ) :   0.9733 B( 98-C ,100-H ) :   0.9802
B( 98-C ,101-H ) :   0.9783 B(102-O ,103-H ) :   0.9812 B(102-O ,104-C ) :   0.9162
B(104-C ,105-H ) :   0.9710 B(104-C ,106-H ) :   0.9811 B(104-C ,107-H ) :   0.9695
B(108-O ,109-H ) :   1.0033 B(108-O ,110-C ) :   0.9381 B(110-C ,111-H ) :   0.9676
B(110-C ,112-H ) :   0.9706 B(110-C ,113-H ) :   0.9907 B(114-O ,115-H ) :   0.9960
B(114-O ,116-C ) :   0.9798 B(116-C ,117-H ) :   0.9740 B(116-C ,118-H ) :   0.9740
B(116-C ,119-H ) :   0.9743

MP2 TOTAL ENERGY:    -2310.342545699 Eh
FINAL SINGLE POINT ENERGY     -2310.342545699171

DIPOLE MOMENT
-------------
                                X             Y             Z
Electronic contribution:      7.13316       4.18470      -4.21999
Nuclear contribution   :    -11.68893      -2.61057       3.45987
                        -----------------------------------------
Total Dipole Moment    :     -4.55577       1.57412      -0.76012
                        -----------------------------------------
Magnitude (a.u.)       :      4.87962
Magnitude (Debye)      :     12.40301

Rotational constants in cm-1:     0.001571     0.001376     0.001228
Rotational constants in MHz :    47.092777    41.241838    36.824035

                             ****ORCA TERMINATED NORMALLY****
TOTAL RUN TIME: 0 days 1 hours 35 minutes 53 seconds 836 msec
