                         Program Version 4.2.0 -  RELEASE  -
|  1> ! RI-MP2 cc-pVTZ cc-pVTZ/C TightSCF FrozenCore
|  2>
|  3> %pal nprocs 24 end
|  4> %maxcore 8000
|  5> %scf ConvForced true end
|  6>
|  7> *xyz  0  1
|  8> O     0.00000     0.00000     0.00000
|  9> H     0.07938     0.32993    -0.95720
| 10> C    -1.10074    -0.68898     0.29082
| 11> H    -1.53782    -0.32823     1.21678
| 12> H    -0.92164    -1.78574     0.38104
| 13> H    -1.84459    -0.62452    -0.51254
| 14> O     0.11192     1.29085    -2.79603
| 15> H     0.45514     2.21011    -2.55833
| 16> C     1.23804     0.45369    -2.90404
| 17> H     1.00442    -0.51965    -2.55018
| 18> H     1.96891     1.03058    -2.35721
| 19> H     1.52913     0.49481    -3.90650
| 20> O     0.60738     1.32524     3.02857
| 21> H     0.00715     1.10352     2.24369
| 22> C     1.07232     0.10038     3.57103
| 23> H     1.48362     0.28069     4.56337
| 24> H     1.89926    -0.33761     2.90227
| 25> H     0.21375    -0.52619     3.65339
| 26> O    -2.28658     2.26908     2.98672
| 27> H    -2.26719     2.71794     3.89051
| 28> C    -3.32626     2.69705     2.14699
| 29> H    -3.72800     1.88348     1.60038
| 30> H    -3.00787     3.45914     1.52105
| 31> H    -4.13928     3.12202     2.74459
| 32> O     1.54776     4.27049    -1.41013
| 33> H     1.39573     5.12757    -1.01688
| 34> C     1.91389     3.34608    -0.35610
| 35> H     2.33912     2.42277    -0.82760
| 36> H     0.99622     3.05647     0.26237
| 37> H     2.67976     3.73859     0.36998
| 38> O    -0.20106     4.54827     1.93448
| 39> H     0.12005     3.74660     2.35948
| 40> C    -0.97167     5.25054     2.89065
| 41> H    -1.36469     6.20718     2.43822
| 42> H    -0.38348     5.53247     3.78765
| 43> H    -1.87763     4.61867     3.06542
| 44> O    -4.43983     1.40935    -1.84039
| 45> H    -4.51646     1.98031    -2.60341
| 46> C    -3.91008     0.24274    -2.35388
| 47> H    -4.26812    -0.64992    -1.80846
| 48> H    -2.87193     0.34671    -2.29077
| 49> H    -4.18099     0.20547    -3.38977
| 50> O     2.89219     3.19684     2.78182
| 51> H     2.26750     2.49812     3.10905
| 52> C     3.98734     3.15245     3.63796
| 53> H     4.08352     4.05961     4.20113
| 54> H     4.85225     2.95991     3.00258
| 55> H     3.78917     2.31113     4.30166
| 56> O     4.62888    -1.73279    -1.56421
| 57> H     5.00771    -2.45466    -0.98660
| 58> C     3.41546    -1.57057    -1.05541
| 59> H     3.13857    -0.50430    -1.05321
| 60> H     3.52372    -1.92748    -0.00192
| 61> H     2.69649    -2.20576    -1.54980
| 62> O    -2.09795    -2.11934    -4.26273
| 63> H    -2.88247    -2.57756    -3.89259
| 64> C    -1.00823    -3.00751    -4.00972
| 65> H    -0.00491    -2.53729    -4.26006
| 66> H    -1.11250    -3.87715    -4.65697
| 67> H    -0.92249    -3.33260    -2.91235
| 68> O    -2.24629     4.66297    -0.67806
| 69> H    -1.37674     4.20478    -0.75367
| 70> C    -2.03200     6.02863    -0.71354
| 71> H    -3.04215     6.51116    -0.72653
| 72> H    -1.36497     6.28193    -1.57442
| 73> H    -1.54659     6.37631     0.18246
| 74> O    -2.84379    -0.48385     4.62765
| 75> H    -2.81687     0.41978     4.25721
| 76> C    -2.68823    -1.47448     3.62715
| 77> H    -2.96033    -2.47323     4.11701
| 78> H    -1.65514    -1.56939     3.26990
| 79> H    -3.32836    -1.22773     2.75991
| 80> O     2.67037    -1.89830    -4.39235
| 81> H     3.56547    -1.83721    -4.07318
| 82> C     2.76534    -2.84797    -5.38976
| 83> H     1.81084    -3.38339    -5.52932
| 84> H     3.47468    -3.57815    -5.10692
| 85> H     3.01890    -2.36760    -6.36874
| 86> O    -0.36876    -3.24019     4.58647
| 87> H     0.57256    -3.31397     4.84359
| 88> C    -0.77622    -4.49497     4.31793
| 89> H    -1.85278    -4.61143     4.55675
| 90> H    -0.15173    -5.21174     4.90488
| 91> H    -0.59901    -4.70624     3.26431
| 92> O    -3.91375    -3.62126    -1.84497
| 93> H    -4.66793    -3.77583    -2.37910
| 94> C    -4.18822    -4.02898    -0.54663
| 95> H    -3.56068    -4.89479    -0.24836
| 96> H    -5.22551    -4.31632    -0.51263
| 97> H    -4.04861    -3.21638     0.09937
| 98> O     1.97226    -5.45035    -2.35088
| 99> H     1.48863    -6.26025    -2.34702
|100> C     3.40429    -5.84361    -2.45368
|101> H     4.08547    -5.45425    -1.69100
|102> H     3.80621    -5.44741    -3.37201
|103> H     3.51542    -6.93676    -2.46875
|104> O     0.96588     6.29710     0.05500
|105> H     0.68084     5.80523     0.89095
|106> C     1.82942     7.35765     0.46912
|107> H     2.08215     7.96547    -0.36438
|108> H     2.72950     6.87847     0.84554
|109> H     1.34007     8.00792     1.22985
|110> O     3.32400    -5.22471     1.85717
|111> H     3.20280    -5.56813     2.72615
|112> C     4.57973    -4.62096     1.81972
|113> H     4.60341    -3.66337     1.34835
|114> H     5.30091    -5.29795     1.47129
|115> H     4.83651    -4.37689     2.89777
|116> O     0.35552    -6.81914     0.82476
|117> H     0.92998    -7.13285     1.52124
|118> C     0.64956    -5.42906     0.66014
|119> H    -0.07280    -4.88298     0.03482
|120> H     1.57420    -5.34483     0.11870
|121> H     0.88080    -5.00006     1.56231
|122> O     5.14486     3.89778    -2.62299
|123> H     6.10270     3.99770    -2.63314
|124> C     4.79727     3.12110    -3.79631
|125> H     4.14971     3.70824    -4.40072
|126> H     4.39538     2.18810    -3.49348
|127> H     5.71744     2.89670    -4.38361
|128>
|129> *
|130>
|131>                          ****END OF INPUT****

CARTESIAN COORDINATES (ANGSTROEM)
---------------------------------
  O      0.000000    0.000000    0.000000
  H      0.079380    0.329930   -0.957200
  C     -1.100740   -0.688980    0.290820
  H     -1.537820   -0.328230    1.216780
  H     -0.921640   -1.785740    0.381040
  H     -1.844590   -0.624520   -0.512540
  O      0.111920    1.290850   -2.796030
  H      0.455140    2.210110   -2.558330
  C      1.238040    0.453690   -2.904040
  H      1.004420   -0.519650   -2.550180
  H      1.968910    1.030580   -2.357210
  H      1.529130    0.494810   -3.906500
  O      0.607380    1.325240    3.028570
  H      0.007150    1.103520    2.243690
  C      1.072320    0.100380    3.571030
  H      1.483620    0.280690    4.563370
  H      1.899260   -0.337610    2.902270
  H      0.213750   -0.526190    3.653390
  O     -2.286580    2.269080    2.986720
  H     -2.267190    2.717940    3.890510
  C     -3.326260    2.697050    2.146990
  H     -3.728000    1.883480    1.600380
  H     -3.007870    3.459140    1.521050
  H     -4.139280    3.122020    2.744590
  O      1.547760    4.270490   -1.410130
  H      1.395730    5.127570   -1.016880
  C      1.913890    3.346080   -0.356100
  H      2.339120    2.422770   -0.827600
  H      0.996220    3.056470    0.262370
  H      2.679760    3.738590    0.369980
  O     -0.201060    4.548270    1.934480
  H      0.120050    3.746600    2.359480
  C     -0.971670    5.250540    2.890650
  H     -1.364690    6.207180    2.438220
  H     -0.383480    5.532470    3.787650
  H     -1.877630    4.618670    3.065420
  O     -4.439830    1.409350   -1.840390
  H     -4.516460    1.980310   -2.603410
  C     -3.910080    0.242740   -2.353880
  H     -4.268120   -0.649920   -1.808460
  H     -2.871930    0.346710   -2.290770
  H     -4.180990    0.205470   -3.389770
  O      2.892190    3.196840    2.781820
  H      2.267500    2.498120    3.109050
  C      3.987340    3.152450    3.637960
  H      4.083520    4.059610    4.201130
  H      4.852250    2.959910    3.002580
  H      3.789170    2.311130    4.301660
  O      4.628880   -1.732790   -1.564210
  H      5.007710   -2.454660   -0.986600
  C      3.415460   -1.570570   -1.055410
  H      3.138570   -0.504300   -1.053210
  H      3.523720   -1.927480   -0.001920
  H      2.696490   -2.205760   -1.549800
  O     -2.097950   -2.119340   -4.262730
  H     -2.882470   -2.577560   -3.892590
  C     -1.008230   -3.007510   -4.009720
  H     -0.004910   -2.537290   -4.260060
  H     -1.112500   -3.877150   -4.656970
  H     -0.922490   -3.332600   -2.912350
  O     -2.246290    4.662970   -0.678060
  H     -1.376740    4.204780   -0.753670
  C     -2.032000    6.028630   -0.713540
  H     -3.042150    6.511160   -0.726530
  H     -1.364970    6.281930   -1.574420
  H     -1.546590    6.376310    0.182460
  O     -2.843790   -0.483850    4.627650
  H     -2.816870    0.419780    4.257210
  C     -2.688230   -1.474480    3.627150
  H     -2.960330   -2.473230    4.117010
  H     -1.655140   -1.569390    3.269900
  H     -3.328360   -1.227730    2.759910
  O      2.670370   -1.898300   -4.392350
  H      3.565470   -1.837210   -4.073180
  C      2.765340   -2.847970   -5.389760
  H      1.810840   -3.383390   -5.529320
  H      3.474680   -3.578150   -5.106920
  H      3.018900   -2.367600   -6.368740
  O     -0.368760   -3.240190    4.586470
  H      0.572560   -3.313970    4.843590
  C     -0.776220   -4.494970    4.317930
  H     -1.852780   -4.611430    4.556750
  H     -0.151730   -5.211740    4.904880
  H     -0.599010   -4.706240    3.264310
  O     -3.913750   -3.621260   -1.844970
  H     -4.667930   -3.775830   -2.379100
  C     -4.188220   -4.028980   -0.546630
  H     -3.560680   -4.894790   -0.248360
  H     -5.225510   -4.316320   -0.512630
  H     -4.048610   -3.216380    0.099370
  O      1.972260   -5.450350   -2.350880
  H      1.488630   -6.260250   -2.347020
  C      3.404290   -5.843610   -2.453680
  H      4.085470   -5.454250   -1.691000
  H      3.806210   -5.447410   -3.372010
  H      3.515420   -6.936760   -2.468750
  O      0.965880    6.297100    0.055000
  H      0.680840    5.805230    0.890950
  C      1.829420    7.357650    0.469120
  H      2.082150    7.965470   -0.364380
  H      2.729500    6.878470    0.845540
  H      1.340070    8.007920    1.229850
  O      3.324000   -5.224710    1.857170
  H      3.202800   -5.568130    2.726150
  C      4.579730   -4.620960    1.819720
  H      4.603410   -3.663370    1.348350
  H      5.300910   -5.297950    1.471290
  H      4.836510   -4.376890    2.897770
  O      0.355520   -6.819140    0.824760
  H      0.929980   -7.132850    1.521240
  C      0.649560   -5.429060    0.660140
  H     -0.072800   -4.882980    0.034820
  H      1.574200   -5.344830    0.118700
  H      0.880800   -5.000060    1.562310
  O      5.144860    3.897780   -2.622990
  H      6.102700    3.997700   -2.633140
  C      4.797270    3.121100   -3.796310
  H      4.149710    3.708240   -4.400720
  H      4.395380    2.188100   -3.493480
  H      5.717440    2.896700   -4.383610

 Total Charge           Charge          ....    0
 Multiplicity           Mult            ....    1
 Number of Electrons    NEL             ....  360
 Basis Dimension        Dim             .... 2320

ORBITAL ENERGIES
----------------

  NO   OCC          E(Eh)            E(eV)
   0   2.0000     -20.576791      -559.9230
   1   2.0000     -20.560096      -559.4687
   2   2.0000     -20.559243      -559.4454
   3   2.0000     -20.558907      -559.4363
   4   2.0000     -20.558040      -559.4127
   5   2.0000     -20.557172      -559.3891
   6   2.0000     -20.555337      -559.3392
   7   2.0000     -20.553735      -559.2956
   8   2.0000     -20.545569      -559.0734
   9   2.0000     -20.542657      -558.9941
  10   2.0000     -20.540933      -558.9472
  11   2.0000     -20.532890      -558.7283
  12   2.0000     -20.530977      -558.6763
  13   2.0000     -20.530825      -558.6721
  14   2.0000     -20.530223      -558.6558
  15   2.0000     -20.529923      -558.6476
  16   2.0000     -20.526097      -558.5435
  17   2.0000     -20.520715      -558.3970
  18   2.0000     -20.517332      -558.3050
  19   2.0000     -20.496123      -557.7279
  20   2.0000     -11.291412      -307.2550
  21   2.0000     -11.282958      -307.0249
  22   2.0000     -11.280354      -306.9540
  23   2.0000     -11.271316      -306.7081
  24   2.0000     -11.268099      -306.6206
  25   2.0000     -11.263656      -306.4997
  26   2.0000     -11.260219      -306.4061
  27   2.0000     -11.258586      -306.3617
  28   2.0000     -11.253981      -306.2364
  29   2.0000     -11.253674      -306.2280
  30   2.0000     -11.252718      -306.2020
  31   2.0000     -11.252568      -306.1979
  32   2.0000     -11.251843      -306.1782
  33   2.0000     -11.243315      -305.9462
  34   2.0000     -11.242930      -305.9357
  35   2.0000     -11.239424      -305.8403
  36   2.0000     -11.237098      -305.7770
  37   2.0000     -11.236477      -305.7601
  38   2.0000     -11.230515      -305.5979
  39   2.0000     -11.224935      -305.4460
  40   2.0000      -1.396947       -38.0129
  41   2.0000      -1.391187       -37.8561
  42   2.0000      -1.388130       -37.7729
  43   2.0000      -1.377887       -37.4942
  44   2.0000      -1.367985       -37.2248
  45   2.0000      -1.366970       -37.1972
  46   2.0000      -1.354692       -36.8631
  47   2.0000      -1.351870       -36.7862
  48   2.0000      -1.346906       -36.6512
  49   2.0000      -1.342548       -36.5326
  50   2.0000      -1.341257       -36.4975
  51   2.0000      -1.341017       -36.4909
  52   2.0000      -1.340765       -36.4841
  53   2.0000      -1.339412       -36.4472
  54   2.0000      -1.330576       -36.2068
  55   2.0000      -1.329049       -36.1653
  56   2.0000      -1.325889       -36.0793
  57   2.0000      -1.323829       -36.0232
  58   2.0000      -1.322434       -35.9852
  59   2.0000      -1.293176       -35.1891
  60   2.0000      -0.955051       -25.9883
  61   2.0000      -0.935923       -25.4678
  62   2.0000      -0.932136       -25.3647
  63   2.0000      -0.922155       -25.0931
  64   2.0000      -0.919122       -25.0106
  65   2.0000      -0.918269       -24.9874
  66   2.0000      -0.914974       -24.8977
  67   2.0000      -0.913919       -24.8690
  68   2.0000      -0.912946       -24.8425
  69   2.0000      -0.911969       -24.8159
  70   2.0000      -0.911130       -24.7931
  71   2.0000      -0.906077       -24.6556
  72   2.0000      -0.905820       -24.6486
  73   2.0000      -0.899416       -24.4744
  74   2.0000      -0.895837       -24.3770
  75   2.0000      -0.891483       -24.2585
  76   2.0000      -0.889644       -24.2084
  77   2.0000      -0.882688       -24.0192
  78   2.0000      -0.882270       -24.0078
  79   2.0000      -0.868541       -23.6342
  80   2.0000      -0.721873       -19.6431
  81   2.0000      -0.708787       -19.2871
  82   2.0000      -0.706816       -19.2334
  83   2.0000      -0.705778       -19.2052
  84   2.0000      -0.705098       -19.1867
  85   2.0000      -0.694045       -18.8859
  86   2.0000      -0.693787       -18.8789
  87   2.0000      -0.687224       -18.7003
  88   2.0000      -0.684192       -18.6178
  89   2.0000      -0.683685       -18.6040
  90   2.0000      -0.681542       -18.5457
  91   2.0000      -0.669713       -18.2238
  92   2.0000      -0.668437       -18.1891
  93   2.0000      -0.667752       -18.1704
  94   2.0000      -0.666257       -18.1298
  95   2.0000      -0.664997       -18.0955
  96   2.0000      -0.663198       -18.0465
  97   2.0000      -0.661680       -18.0052
  98   2.0000      -0.660127       -17.9630
  99   2.0000      -0.653414       -17.7803
 100   2.0000      -0.651111       -17.7176
 101   2.0000      -0.640628       -17.4324
 102   2.0000      -0.638234       -17.3672
 103   2.0000      -0.637842       -17.3566
 104   2.0000      -0.632536       -17.2122
 105   2.0000      -0.630327       -17.1521
 106   2.0000      -0.620683       -16.8896
 107   2.0000      -0.620423       -16.8826
 108   2.0000      -0.618357       -16.8263
 109   2.0000      -0.615500       -16.7486
 110   2.0000      -0.613920       -16.7056
 111   2.0000      -0.613092       -16.6831
 112   2.0000      -0.612257       -16.6604
 113   2.0000      -0.611452       -16.6385
 114   2.0000      -0.610046       -16.6002
 115   2.0000      -0.608680       -16.5630
 116   2.0000      -0.607560       -16.5325
 117   2.0000      -0.605892       -16.4871
 118   2.0000      -0.602288       -16.3891
 119   2.0000      -0.600903       -16.3514
 120   2.0000      -0.598736       -16.2924
 121   2.0000      -0.597033       -16.2461
 122   2.0000      -0.595162       -16.1952
 123   2.0000      -0.594084       -16.1659
 124   2.0000      -0.591332       -16.0910
 125   2.0000      -0.590907       -16.0794
 126   2.0000      -0.588372       -16.0104
 127   2.0000      -0.587466       -15.9858
 128   2.0000      -0.585462       -15.9312
 129   2.0000      -0.583137       -15.8680
 130   2.0000      -0.579306       -15.7637
 131   2.0000      -0.576353       -15.6834
 132   2.0000      -0.575055       -15.6480
 133   2.0000      -0.569343       -15.4926
 134   2.0000      -0.566389       -15.4122
 135   2.0000      -0.562246       -15.2995
 136   2.0000      -0.561348       -15.2750
 137   2.0000      -0.558011       -15.1842
 138   2.0000      -0.554901       -15.0996
 139   2.0000      -0.535545       -14.5729
 140   2.0000      -0.516555       -14.0562
 141   2.0000      -0.512689       -13.9510
 142   2.0000      -0.504787       -13.7360
 143   2.0000      -0.501334       -13.6420
 144   2.0000      -0.499645       -13.5960
 145   2.0000      -0.496467       -13.5095
 146   2.0000      -0.493260       -13.4223
 147   2.0000      -0.492834       -13.4107
 148   2.0000      -0.490444       -13.3457
 149   2.0000      -0.486246       -13.2314
 150   2.0000      -0.482885       -13.1400
 151   2.0000      -0.480905       -13.0861
 152   2.0000      -0.478770       -13.0280
 153   2.0000      -0.477468       -12.9926
 154   2.0000      -0.474220       -12.9042
 155   2.0000      -0.472003       -12.8439
 156   2.0000      -0.469980       -12.7888
 157   2.0000      -0.466485       -12.6937
 158   2.0000      -0.462891       -12.5959
 159   2.0000      -0.459431       -12.5018
 160   2.0000      -0.456967       -12.4347
 161   2.0000      -0.455442       -12.3932
 162   2.0000      -0.452081       -12.3017
 163   2.0000      -0.450593       -12.2613
 164   2.0000      -0.446334       -12.1454
 165   2.0000      -0.443378       -12.0649
 166   2.0000      -0.439583       -11.9617
 167   2.0000      -0.439202       -11.9513
 168   2.0000      -0.437775       -11.9125
 169   2.0000      -0.432794       -11.7769
 170   2.0000      -0.430562       -11.7162
 171   2.0000      -0.427699       -11.6383
 172   2.0000      -0.423752       -11.5309
 173   2.0000      -0.422451       -11.4955
 174   2.0000      -0.421496       -11.4695
 175   2.0000      -0.417808       -11.3691
 176   2.0000      -0.412827       -11.2336
 177   2.0000      -0.408642       -11.1197
 178   2.0000      -0.405497       -11.0341
 179   2.0000      -0.396139       -10.7795
 180   0.0000       0.084933         2.3112
 181   0.0000       0.106161         2.8888
 182   0.0000       0.116319         3.1652
 183   0.0000       0.119411         3.2493
 184   0.0000       0.127341         3.4651

MULLIKEN ATOMIC CHARGES
-----------------------
   0 O :   -0.450825
   1 H :    0.306953
   2 C :   -0.028769
   3 H :    0.036249
   4 H :    0.040204
   5 H :    0.082429
   6 O :   -0.459406
   7 H :    0.260554
   8 C :   -0.092915
   9 H :    0.100493
  10 H :    0.061160
  11 H :    0.134021
  12 O :   -0.499268
  13 H :    0.313970
  14 C :   -0.095024
  15 H :    0.096116
  16 H :    0.059206
  17 H :    0.145952
  18 O :   -0.459197
  19 H :    0.250049
  20 C :   -0.106234
  21 H :    0.134039
  22 H :    0.133695
  23 H :    0.062173
  24 O :   -0.509686
  25 H :    0.287185
  26 C :   -0.078964
  27 H :    0.092040
  28 H :    0.050865
  29 H :    0.102764
  30 O :   -0.433507
  31 H :    0.282340
  32 C :   -0.098991
  33 H :    0.090655
  34 H :    0.107932
  35 H :    0.069556
  36 O :   -0.402853
  37 H :    0.225360
  38 C :   -0.047119
  39 H :    0.046966
  40 H :    0.102780
  41 H :    0.061606
  42 O :   -0.433192
  43 H :    0.274209
  44 C :   -0.027091
  45 H :    0.068152
  46 H :    0.069060
  47 H :    0.044228
  48 O :   -0.396794
  49 H :    0.238855
  50 C :   -0.051811
  51 H :    0.092329
  52 H :    0.033481
  53 H :    0.081201
  54 O :   -0.425195
  55 H :    0.241219
  56 C :   -0.024955
  57 H :    0.089281
  58 H :    0.067779
  59 H :    0.047819
  60 O :   -0.418871
  61 H :    0.258367
  62 C :   -0.037738
  63 H :    0.080571
  64 H :    0.075711
  65 H :    0.041190
  66 O :   -0.445486
  67 H :    0.243169
  68 C :   -0.000307
  69 H :    0.074413
  70 H :    0.046072
  71 H :    0.053515
  72 O :   -0.384445
  73 H :    0.230933
  74 C :   -0.032577
  75 H :    0.073337
  76 H :    0.063329
  77 H :    0.056192
  78 O :   -0.361968
  79 H :    0.221014
  80 C :   -0.049046
  81 H :    0.088142
  82 H :    0.042148
  83 H :    0.069747
  84 O :   -0.397103
  85 H :    0.218565
  86 C :   -0.031774
  87 H :    0.072588
  88 H :    0.063253
  89 H :    0.088970
  90 O :   -0.414333
  91 H :    0.231327
  92 C :   -0.055168
  93 H :    0.071344
  94 H :    0.095605
  95 H :    0.086119
  96 O :   -0.466121
  97 H :    0.312440
  98 C :   -0.088259
  99 H :    0.113310
 100 H :    0.090773
 101 H :    0.068566
 102 O :   -0.379626
 103 H :    0.221340
 104 C :   -0.041869
 105 H :    0.075236
 106 H :    0.091260
 107 H :    0.048511
 108 O :   -0.444613
 109 H :    0.215213
 110 C :   -0.082411
 111 H :    0.094578
 112 H :    0.105325
 113 H :    0.085859
 114 O :   -0.413539
 115 H :    0.215292
 116 C :   -0.029814
 117 H :    0.093443
 118 H :    0.089553
 119 H :    0.045622
Sum of atomic charges:   -0.0000000

LOEWDIN ATOMIC CHARGES
----------------------
   0 O :    0.322710
   1 H :   -0.126986
   2 C :   -0.087525
   3 H :   -0.054258
   4 H :   -0.041888
   5 H :   -0.035626
   6 O :    0.281351
   7 H :   -0.124273
   8 C :    0.023179
   9 H :   -0.050975
  10 H :   -0.055011
  11 H :   -0.060159
  12 O :    0.271115
  13 H :   -0.119196
  14 C :    0.006948
  15 H :   -0.042025
  16 H :   -0.024164
  17 H :   -0.052343
  18 O :    0.290895
  19 H :   -0.136313
  20 C :    0.018920
  21 H :   -0.041312
  22 H :   -0.065933
  23 H :   -0.038876
  24 O :    0.272913
  25 H :   -0.331768
  26 C :   -0.000248
  27 H :   -0.040197
  28 H :   -0.042005
  29 H :   -0.036892
  30 O :    0.370939
  31 H :   -0.186350
  32 C :    0.001006
  33 H :   -0.022494
  34 H :   -0.040393
  35 H :   -0.039016
  36 O :    0.338381
  37 H :   -0.194266
  38 C :   -0.003866
  39 H :   -0.035790
  40 H :   -0.066944
  41 H :   -0.052316
  42 O :    0.299460
  43 H :   -0.180707
  44 C :   -0.004931
  45 H :   -0.055486
  46 H :   -0.043302
  47 H :   -0.048348
  48 O :    0.333399
  49 H :   -0.130819
  50 C :   -0.078018
  51 H :   -0.032969
  52 H :   -0.042188
  53 H :   -0.052366
  54 O :    0.274049
  55 H :   -0.177160
  56 C :   -0.001471
  57 H :   -0.018191
  58 H :   -0.059437
  59 H :   -0.028658
  60 O :    0.313168
  61 H :   -0.154621
  62 C :   -0.033765
  63 H :   -0.031782
  64 H :   -0.035209
  65 H :   -0.069564
  66 O :    0.284560
  67 H :   -0.194966
  68 C :   -0.005550
  69 H :   -0.017874
  70 H :   -0.059461
  71 H :   -0.052239
  72 O :    0.365334
  73 H :   -0.200790
  74 C :   -0.014833
  75 H :   -0.030360
  76 H :   -0.065472
  77 H :   -0.036456
  78 O :    0.360449
  79 H :   -0.160125
  80 C :   -0.059942
  81 H :   -0.030923
  82 H :   -0.039616
  83 H :   -0.050076
  84 O :    0.367608
  85 H :   -0.228544
  86 C :    0.015916
  87 H :   -0.027838
  88 H :   -0.046742
  89 H :   -0.060203
  90 O :    0.297674
  91 H :   -0.229143
  92 C :    0.077136
  93 H :   -0.041911
  94 H :   -0.048557
  95 H :   -0.036832
  96 O :    0.362816
  97 H :   -0.171860
  98 C :    0.027051
  99 H :   -0.046430
 100 H :   -0.042698
 101 H :   -0.034352
 102 O :    0.374179
 103 H :   -0.219411
 104 C :    0.014137
 105 H :   -0.051155
 106 H :   -0.064204
 107 H :   -0.020280
 108 O :    0.296383
 109 H :   -0.211062
 110 C :    0.039417
 111 H :   -0.029012
 112 H :   -0.052667
 113 H :   -0.091782
 114 O :    0.285385
 115 H :   -0.205560
 116 C :    0.062593
 117 H :   -0.050527
 118 H :   -0.056401
 119 H :   -0.034816

  Mayer bond orders larger than 0.100000
B(  0-O ,  1-H ) :   0.9044 B(  0-O ,  2-C ) :   1.0163 B(  2-C ,  3-H ) :   0.9710
B(  2-C ,  4-H ) :   0.9653 B(  2-C ,  5-H ) :   0.9854 B(  6-O ,  7-H ) :   0.9497
B(  6-O ,  8-C ) :   0.9289 B(  8-C ,  9-H ) :   0.9680 B(  8-C , 10-H ) :   0.9811
B(  8-C , 11-H ) :   0.9832 B( 12-O , 13-H ) :   0.9042 B( 12-O , 14-C ) :   0.9497
B( 14-C , 15-H ) :   0.9762 B( 14-C , 16-H ) :   0.9700 B( 14-C , 17-H ) :   0.9846
B( 18-O , 19-H ) :   0.9615 B( 18-O , 20-C ) :   0.9225 B( 20-C , 21-H ) :   0.9741
B( 20-C , 22-H ) :   0.9523 B( 20-C , 23-H ) :   0.9868 B( 24-O , 25-H ) :   0.9129
B( 24-O , 26-C ) :   0.9550 B( 26-C , 27-H ) :   0.9830 B( 26-C , 28-H ) :   0.9670
B( 26-C , 29-H ) :   0.9755 B( 30-O , 31-H ) :   0.9252 B( 30-O , 32-C ) :   0.9690
B( 32-C , 33-H ) :   0.9796 B( 32-C , 34-H ) :   0.9821 B( 32-C , 35-H ) :   0.9841
B( 36-O , 37-H ) :   0.9938 B( 36-O , 38-C ) :   0.9756 B( 38-C , 39-H ) :   0.9727
B( 38-C , 40-H ) :   0.9584 B( 38-C , 41-H ) :   0.9891 B( 42-O , 43-H ) :   0.9396
B( 42-O , 44-C ) :   0.9966 B( 44-C , 45-H ) :   0.9701 B( 44-C , 46-H ) :   0.9742
B( 44-C , 47-H ) :   0.9942 B( 48-O , 49-H ) :   0.9854 B( 48-O , 50-C ) :   0.9645
B( 50-C , 51-H ) :   0.9719 B( 50-C , 52-H ) :   0.9986 B( 50-C , 53-H ) :   0.9574
B( 54-O , 55-H ) :   0.9744 B( 54-O , 56-C ) :   0.9748 B( 56-C , 57-H ) :   0.9789
B( 56-C , 58-H ) :   0.9805 B( 56-C , 59-H ) :   0.9670 B( 60-O , 61-H ) :   0.9618
B( 60-O , 62-C ) :   0.9954 B( 62-C , 63-H ) :   0.9828 B( 62-C , 64-H ) :   0.9910
B( 62-C , 65-H ) :   0.9559 B( 66-O , 67-H ) :   0.9664 B( 66-O , 68-C ) :   0.9892
B( 68-C , 69-H ) :   0.9872 B( 68-C , 70-H ) :   0.9546 B( 68-C , 71-H ) :   0.9795
B( 72-O , 73-H ) :   0.9742 B( 72-O , 74-C ) :   0.9899 B( 74-C , 75-H ) :   0.9774
B( 74-C , 76-H ) :   0.9818 B( 74-C , 77-H ) :   0.9788 B( 78-O , 79-H ) :   0.9887
B( 78-O , 80-C ) :   0.9920 B( 80-C , 81-H ) :   0.9759 B( 80-C , 82-H ) :   0.9953
B( 80-C , 83-H ) :   0.9626 B( 84-O , 85-H ) :   0.9978 B( 84-O , 86-C ) :   0.9754
B( 86-C , 87-H ) :   0.9744 B( 86-C , 88-H ) :   0.9941 B( 86-C , 89-H ) :   0.9648
B( 90-O , 91-H ) :   0.9894 B( 90-O , 92-C ) :   0.9692 B( 92-C , 93-H ) :   0.9699
B( 92-C , 94-H ) :   0.9743 B( 92-C , 95-H ) :   0.9900 B( 96-O , 97-H ) :   0.8881
B( 96-O , 98-C ) :   0.9669 B( 98-C , 99-H ) :   0.9783 B( 98-C ,100-H ) :   0.9753
B( 98-C ,101-H ) :   0.9817 B(102-O ,103-H ) :   0.9899 B(102-O ,104-C ) :   0.9860
B(104-C ,105-H ) :   0.9642 B(104-C ,106-H ) :   0.9677 B(104-C ,107-H ) :   0.9986
B(108-O ,109-H ) :   1.0030 B(108-O ,110-C ) :   0.9306 B(110-C ,111-H ) :   0.9758
B(110-C ,112-H ) :   0.9713 B(110-C ,113-H ) :   0.9720 B(114-O ,115-H ) :   1.0011
B(114-O ,116-C ) :   0.9665 B(116-C ,117-H ) :   0.9699 B(116-C ,118-H ) :   0.9649
B(116-C ,119-H ) :   0.9920

MP2 TOTAL ENERGY:    -2310.324392749 Eh
FINAL SINGLE POINT ENERGY     -2310.324392748886

DIPOLE MOMENT
-------------
                                X             Y             Z
Electronic contribution:     -5.00726       6.66562      -1.99059
Nuclear contribution   :      7.70909      -9.29002       3.86164
                        -----------------------------------------
Total Dipole Moment    :      2.70183      -2.62440       1.87105
                        -----------------------------------------
Magnitude (a.u.)       :      4.20573
Magnitude (Debye)      :     10.69013

Rotational constants in cm-1:     0.001765     0.001256     0.001137
Rotational constants in MHz :    52.906528    37.644728    34.073968

                             ****ORCA TERMINATED NORMALLY****
TOTAL RUN TIME: 0 days 0 hours 36 minutes 27 seconds 474 msec
