                         Program Version 4.2.0 -  RELEASE  -
|  1> ! RI-MP2 def2-TZVP def2-TZVP/C TightSCF FrozenCore
|  2>
|  3> %pal nprocs 24 end
|  4> %maxcore 8000
|  5> %scf ConvForced true end
|  6>
|  7> *xyz  0  1
|  8> O     0.00000     0.00000     0.00000
|  9> H    -0.60718     0.01492     0.74568
| 10> C     0.44737     1.33852    -0.23527
| 11> H     0.27262     1.57616    -1.28030
| 12> H     1.50908     1.41937     0.01395
| 13> H    -0.20264     2.00045     0.36996
| 14> O    -0.27498     0.11294     2.59164
| 15> H     0.13293    -0.74566     2.50120
| 16> C    -0.41706     0.23215     4.02639
| 17> H    -0.73723     1.23448     4.35753
| 18> H     0.55690     0.03175     4.58236
| 19> H    -1.14283    -0.47769     4.28447
| 20> O     2.56904    -0.90400    -2.49943
| 21> H     1.80807    -0.49219    -2.10423
| 22> C     2.13439    -2.16150    -2.91751
| 23> H     2.96331    -2.81639    -3.06326
| 24> H     1.63258    -2.07538    -3.88719
| 25> H     1.44168    -2.59915    -2.19568
| 26> O    -3.93805     0.14421     0.34567
| 27> H    -4.67636     0.03321     0.93599
| 28> C    -3.60449    -1.09350    -0.27931
| 29> H    -3.22417    -0.91568    -1.30232
| 30> H    -4.48042    -1.66330    -0.33782
| 31> H    -2.90621    -1.59734     0.24357
| 32> O    -2.30899     2.53258    -2.53163
| 33> H    -2.01867     1.88285    -1.86134
| 34> C    -3.76386     2.46926    -2.67900
| 35> H    -4.12117     3.19027    -3.43230
| 36> H    -4.27898     2.69962    -1.69242
| 37> H    -3.99319     1.43911    -2.98058
| 38> O    -1.13229    -3.35163    -2.40871
| 39> H    -0.35199    -3.63187    -1.91196
| 40> C    -1.99586    -4.41073    -2.68267
| 41> H    -2.91370    -4.13973    -3.32867
| 42> H    -2.37952    -4.72141    -1.69168
| 43> H    -1.44739    -5.21591    -3.11516
| 44> O    -1.92735     3.43210     2.27054
| 45> H    -2.09394     3.85264     3.15912
| 46> C    -2.95090     2.56776     1.92526
| 47> H    -2.85380     2.52401     0.86363
| 48> H    -3.91870     2.95910     2.13936
| 49> H    -2.82591     1.61709     2.39350
| 50> O     4.68906    -1.63161     0.69636
| 51> H     5.02685    -1.26547    -0.14009
| 52> C     3.31244    -1.26664     0.75227
| 53> H     2.71933    -2.13990     0.82408
| 54> H     2.99856    -0.70059    -0.11334
| 55> H     3.15726    -0.69662     1.63824
| 56> O     2.31930    -2.18366     3.93122
| 57> H     2.41680    -1.51179     4.65169
| 58> C     3.43389    -3.08772     4.08390
| 59> H     3.72140    -3.42541     3.07532
| 60> H     3.24895    -3.98313     4.73142
| 61> H     4.32789    -2.61328     4.44652
| 62> O     0.85476     4.00063     3.00162
| 63> H    -0.01822     3.62281     2.82994
| 64> C     1.91787     3.06037     2.68895
| 65> H     2.66048     2.98486     3.46380
| 66> H     2.38558     3.21944     1.72046
| 67> H     1.49723     2.15175     2.70591
| 68> O    -0.21723     2.06270    -4.68946
| 69> H     0.01494     2.63535    -3.95702
| 70> C     1.14775     1.76053    -5.27880
| 71> H     1.03597     1.54475    -6.35299
| 72> H     1.50792     0.86017    -4.79752
| 73> H     1.83962     2.61232    -5.05191
| 74> O     1.28446     5.07157    -0.44510
| 75> H     1.77359     5.89627    -0.56640
| 76> C     0.40365     4.91696    -1.57381
| 77> H    -0.27704     4.03049    -1.41142
| 78> H     0.98966     4.70664    -2.44576
| 79> H    -0.17269     5.81398    -1.67873
| 80> O     1.64083    -5.10944    -0.30076
| 81> H     2.51599    -5.50549    -0.43928
| 82> C     0.70976    -6.20046    -0.52003
| 83> H     0.03387    -6.13767    -1.38112
| 84> H     0.12660    -6.30886     0.41902
| 85> H     1.23411    -7.13762    -0.66650
| 86> O    -0.06994    -2.78290     4.99196
| 87> H     0.68158    -2.77825     4.40800
| 88> C    -0.34081    -4.09264     5.28331
| 89> H    -1.12669    -4.16070     6.09837
| 90> H     0.55789    -4.64973     5.54497
| 91> H    -0.87331    -4.54272     4.33226
| 92> O    -1.76216    -0.18036    -5.49255
| 93> H    -1.09620     0.46274    -5.30625
| 94> C    -1.50548    -1.12704    -4.48198
| 95> H    -1.24385    -2.08779    -4.96932
| 96> H    -2.45009    -1.15718    -3.87401
| 97> H    -0.66831    -0.86556    -3.80790
| 98> O     5.58719    -1.16338    -2.03966
| 99> H     5.58519    -1.92103    -2.58931
|100> C     6.96184    -0.62599    -2.09589
|101> H     6.92089     0.46606    -1.82470
|102> H     7.34352    -0.62573    -3.13499
|103> H     7.65452    -1.23492    -1.55566
|104> O     5.38456     2.62309     0.99964
|105> H     6.22895     2.50273     0.61156
|106> C     4.53689     2.67609    -0.06510
|107> H     3.53875     2.43862     0.28703
|108> H     4.87366     1.93771    -0.79920
|109> H     4.56226     3.65034    -0.46915
|110> O    -5.69993    -0.51947    -2.90854
|111> H    -6.16856    -0.82798    -3.67227
|112> C    -6.65382     0.18213    -2.15226
|113> H    -6.43444     0.01596    -1.11656
|114> H    -7.61917    -0.28385    -2.33404
|115> H    -6.67538     1.23431    -2.44109
|116> O    -3.52147     1.05646     5.32414
|117> H    -4.36356     1.30123     5.67745
|118> C    -2.95469     0.33162     6.34466
|119> H    -2.39408    -0.44934     5.92689
|120> H    -3.74357    -0.09401     6.97537
|121> H    -2.23926     1.03396     6.84445
|122> O    -3.54411    -3.75011     4.20977
|123> H    -3.28850    -4.52554     4.58791
|124> C    -2.81761    -3.71540     2.99362
|125> H    -3.37899    -3.13960     2.21055
|126> H    -2.79183    -4.70027     2.74911
|127> H    -1.78731    -3.33676     3.20966
|128> *
|129>
|130>                          ****END OF INPUT****

CARTESIAN COORDINATES (ANGSTROEM)
---------------------------------
  O      0.000000    0.000000    0.000000
  H     -0.607180    0.014920    0.745680
  C      0.447370    1.338520   -0.235270
  H      0.272620    1.576160   -1.280300
  H      1.509080    1.419370    0.013950
  H     -0.202640    2.000450    0.369960
  O     -0.274980    0.112940    2.591640
  H      0.132930   -0.745660    2.501200
  C     -0.417060    0.232150    4.026390
  H     -0.737230    1.234480    4.357530
  H      0.556900    0.031750    4.582360
  H     -1.142830   -0.477690    4.284470
  O      2.569040   -0.904000   -2.499430
  H      1.808070   -0.492190   -2.104230
  C      2.134390   -2.161500   -2.917510
  H      2.963310   -2.816390   -3.063260
  H      1.632580   -2.075380   -3.887190
  H      1.441680   -2.599150   -2.195680
  O     -3.938050    0.144210    0.345670
  H     -4.676360    0.033210    0.935990
  C     -3.604490   -1.093500   -0.279310
  H     -3.224170   -0.915680   -1.302320
  H     -4.480420   -1.663300   -0.337820
  H     -2.906210   -1.597340    0.243570
  O     -2.308990    2.532580   -2.531630
  H     -2.018670    1.882850   -1.861340
  C     -3.763860    2.469260   -2.679000
  H     -4.121170    3.190270   -3.432300
  H     -4.278980    2.699620   -1.692420
  H     -3.993190    1.439110   -2.980580
  O     -1.132290   -3.351630   -2.408710
  H     -0.351990   -3.631870   -1.911960
  C     -1.995860   -4.410730   -2.682670
  H     -2.913700   -4.139730   -3.328670
  H     -2.379520   -4.721410   -1.691680
  H     -1.447390   -5.215910   -3.115160
  O     -1.927350    3.432100    2.270540
  H     -2.093940    3.852640    3.159120
  C     -2.950900    2.567760    1.925260
  H     -2.853800    2.524010    0.863630
  H     -3.918700    2.959100    2.139360
  H     -2.825910    1.617090    2.393500
  O      4.689060   -1.631610    0.696360
  H      5.026850   -1.265470   -0.140090
  C      3.312440   -1.266640    0.752270
  H      2.719330   -2.139900    0.824080
  H      2.998560   -0.700590   -0.113340
  H      3.157260   -0.696620    1.638240
  O      2.319300   -2.183660    3.931220
  H      2.416800   -1.511790    4.651690
  C      3.433890   -3.087720    4.083900
  H      3.721400   -3.425410    3.075320
  H      3.248950   -3.983130    4.731420
  H      4.327890   -2.613280    4.446520
  O      0.854760    4.000630    3.001620
  H     -0.018220    3.622810    2.829940
  C      1.917870    3.060370    2.688950
  H      2.660480    2.984860    3.463800
  H      2.385580    3.219440    1.720460
  H      1.497230    2.151750    2.705910
  O     -0.217230    2.062700   -4.689460
  H      0.014940    2.635350   -3.957020
  C      1.147750    1.760530   -5.278800
  H      1.035970    1.544750   -6.352990
  H      1.507920    0.860170   -4.797520
  H      1.839620    2.612320   -5.051910
  O      1.284460    5.071570   -0.445100
  H      1.773590    5.896270   -0.566400
  C      0.403650    4.916960   -1.573810
  H     -0.277040    4.030490   -1.411420
  H      0.989660    4.706640   -2.445760
  H     -0.172690    5.813980   -1.678730
  O      1.640830   -5.109440   -0.300760
  H      2.515990   -5.505490   -0.439280
  C      0.709760   -6.200460   -0.520030
  H      0.033870   -6.137670   -1.381120
  H      0.126600   -6.308860    0.419020
  H      1.234110   -7.137620   -0.666500
  O     -0.069940   -2.782900    4.991960
  H      0.681580   -2.778250    4.408000
  C     -0.340810   -4.092640    5.283310
  H     -1.126690   -4.160700    6.098370
  H      0.557890   -4.649730    5.544970
  H     -0.873310   -4.542720    4.332260
  O     -1.762160   -0.180360   -5.492550
  H     -1.096200    0.462740   -5.306250
  C     -1.505480   -1.127040   -4.481980
  H     -1.243850   -2.087790   -4.969320
  H     -2.450090   -1.157180   -3.874010
  H     -0.668310   -0.865560   -3.807900
  O      5.587190   -1.163380   -2.039660
  H      5.585190   -1.921030   -2.589310
  C      6.961840   -0.625990   -2.095890
  H      6.920890    0.466060   -1.824700
  H      7.343520   -0.625730   -3.134990
  H      7.654520   -1.234920   -1.555660
  O      5.384560    2.623090    0.999640
  H      6.228950    2.502730    0.611560
  C      4.536890    2.676090   -0.065100
  H      3.538750    2.438620    0.287030
  H      4.873660    1.937710   -0.799200
  H      4.562260    3.650340   -0.469150
  O     -5.699930   -0.519470   -2.908540
  H     -6.168560   -0.827980   -3.672270
  C     -6.653820    0.182130   -2.152260
  H     -6.434440    0.015960   -1.116560
  H     -7.619170   -0.283850   -2.334040
  H     -6.675380    1.234310   -2.441090
  O     -3.521470    1.056460    5.324140
  H     -4.363560    1.301230    5.677450
  C     -2.954690    0.331620    6.344660
  H     -2.394080   -0.449340    5.926890
  H     -3.743570   -0.094010    6.975370
  H     -2.239260    1.033960    6.844450
  O     -3.544110   -3.750110    4.209770
  H     -3.288500   -4.525540    4.587910
  C     -2.817610   -3.715400    2.993620
  H     -3.378990   -3.139600    2.210550
  H     -2.791830   -4.700270    2.749110
  H     -1.787310   -3.336760    3.209660

 Total Charge           Charge          ....    0
 Multiplicity           Mult            ....    1
 Number of Electrons    NEL             ....  360
 Basis Dimension        Dim             .... 1720

ORBITAL ENERGIES
----------------

  NO   OCC          E(Eh)            E(eV)
   0   2.0000     -20.584572      -560.1347
   1   2.0000     -20.573928      -559.8450
   2   2.0000     -20.562712      -559.5398
   3   2.0000     -20.548151      -559.1436
   4   2.0000     -20.547995      -559.1394
   5   2.0000     -20.546395      -559.0958
   6   2.0000     -20.544665      -559.0487
   7   2.0000     -20.543122      -559.0068
   8   2.0000     -20.542099      -558.9789
   9   2.0000     -20.540407      -558.9329
  10   2.0000     -20.539794      -558.9162
  11   2.0000     -20.537596      -558.8564
  12   2.0000     -20.534828      -558.7811
  13   2.0000     -20.531534      -558.6915
  14   2.0000     -20.530221      -558.6557
  15   2.0000     -20.525373      -558.5238
  16   2.0000     -20.515158      -558.2458
  17   2.0000     -20.505310      -557.9779
  18   2.0000     -20.496271      -557.7319
  19   2.0000     -20.495168      -557.7019
  20   2.0000     -11.289706      -307.2085
  21   2.0000     -11.286795      -307.1293
  22   2.0000     -11.282586      -307.0148
  23   2.0000     -11.279537      -306.9318
  24   2.0000     -11.271494      -306.7130
  25   2.0000     -11.271077      -306.7016
  26   2.0000     -11.262618      -306.4714
  27   2.0000     -11.261360      -306.4372
  28   2.0000     -11.256872      -306.3151
  29   2.0000     -11.256260      -306.2984
  30   2.0000     -11.249267      -306.1081
  31   2.0000     -11.249050      -306.1022
  32   2.0000     -11.248473      -306.0865
  33   2.0000     -11.243299      -305.9457
  34   2.0000     -11.238527      -305.8159
  35   2.0000     -11.236345      -305.7565
  36   2.0000     -11.229166      -305.5611
  37   2.0000     -11.228044      -305.5306
  38   2.0000     -11.213857      -305.1446
  39   2.0000     -11.210175      -305.0444
  40   2.0000      -1.378811       -37.5193
  41   2.0000      -1.377466       -37.4828
  42   2.0000      -1.373417       -37.3726
  43   2.0000      -1.368239       -37.2317
  44   2.0000      -1.362938       -37.0874
  45   2.0000      -1.361479       -37.0477
  46   2.0000      -1.361280       -37.0423
  47   2.0000      -1.356044       -36.8998
  48   2.0000      -1.354823       -36.8666
  49   2.0000      -1.351085       -36.7649
  50   2.0000      -1.349673       -36.7265
  51   2.0000      -1.345598       -36.6156
  52   2.0000      -1.341600       -36.5068
  53   2.0000      -1.324687       -36.0466
  54   2.0000      -1.324442       -36.0399
  55   2.0000      -1.317236       -35.8438
  56   2.0000      -1.312261       -35.7084
  57   2.0000      -1.306846       -35.5611
  58   2.0000      -1.305271       -35.5182
  59   2.0000      -1.285531       -34.9811
  60   2.0000      -0.938900       -25.5488
  61   2.0000      -0.935276       -25.4501
  62   2.0000      -0.934304       -25.4237
  63   2.0000      -0.927463       -25.2375
  64   2.0000      -0.922510       -25.1028
  65   2.0000      -0.921353       -25.0713
  66   2.0000      -0.920272       -25.0419
  67   2.0000      -0.916305       -24.9339
  68   2.0000      -0.912552       -24.8318
  69   2.0000      -0.910760       -24.7830
  70   2.0000      -0.909694       -24.7540
  71   2.0000      -0.907716       -24.7002
  72   2.0000      -0.906322       -24.6623
  73   2.0000      -0.904936       -24.6246
  74   2.0000      -0.902975       -24.5712
  75   2.0000      -0.894215       -24.3328
  76   2.0000      -0.890403       -24.2291
  77   2.0000      -0.886250       -24.1161
  78   2.0000      -0.885729       -24.1019
  79   2.0000      -0.866348       -23.5745
  80   2.0000      -0.709244       -19.2995
  81   2.0000      -0.705040       -19.1851
  82   2.0000      -0.700946       -19.0737
  83   2.0000      -0.700461       -19.0605
  84   2.0000      -0.699983       -19.0475
  85   2.0000      -0.698699       -19.0126
  86   2.0000      -0.692214       -18.8361
  87   2.0000      -0.690560       -18.7911
  88   2.0000      -0.689692       -18.7675
  89   2.0000      -0.680958       -18.5298
  90   2.0000      -0.680531       -18.5182
  91   2.0000      -0.677757       -18.4427
  92   2.0000      -0.676770       -18.4159
  93   2.0000      -0.675170       -18.3723
  94   2.0000      -0.663627       -18.0582
  95   2.0000      -0.658911       -17.9299
  96   2.0000      -0.651425       -17.7262
  97   2.0000      -0.645564       -17.5667
  98   2.0000      -0.644570       -17.5397
  99   2.0000      -0.640430       -17.4270
 100   2.0000      -0.637553       -17.3487
 101   2.0000      -0.629406       -17.1270
 102   2.0000      -0.629284       -17.1237
 103   2.0000      -0.628749       -17.1091
 104   2.0000      -0.625969       -17.0335
 105   2.0000      -0.623725       -16.9724
 106   2.0000      -0.623081       -16.9549
 107   2.0000      -0.620892       -16.8953
 108   2.0000      -0.619206       -16.8495
 109   2.0000      -0.614433       -16.7196
 110   2.0000      -0.609845       -16.5947
 111   2.0000      -0.607660       -16.5353
 112   2.0000      -0.606819       -16.5124
 113   2.0000      -0.606264       -16.4973
 114   2.0000      -0.602863       -16.4047
 115   2.0000      -0.600233       -16.3332
 116   2.0000      -0.599952       -16.3255
 117   2.0000      -0.599638       -16.3170
 118   2.0000      -0.595781       -16.2120
 119   2.0000      -0.594376       -16.1738
 120   2.0000      -0.593943       -16.1620
 121   2.0000      -0.592548       -16.1241
 122   2.0000      -0.591430       -16.0936
 123   2.0000      -0.590366       -16.0647
 124   2.0000      -0.589837       -16.0503
 125   2.0000      -0.582855       -15.8603
 126   2.0000      -0.581401       -15.8207
 127   2.0000      -0.580674       -15.8010
 128   2.0000      -0.577921       -15.7260
 129   2.0000      -0.575913       -15.6714
 130   2.0000      -0.572556       -15.5800
 131   2.0000      -0.570683       -15.5291
 132   2.0000      -0.569491       -15.4966
 133   2.0000      -0.565977       -15.4010
 134   2.0000      -0.562239       -15.2993
 135   2.0000      -0.558653       -15.2017
 136   2.0000      -0.554739       -15.0952
 137   2.0000      -0.548606       -14.9283
 138   2.0000      -0.545356       -14.8399
 139   2.0000      -0.531372       -14.4594
 140   2.0000      -0.520405       -14.1609
 141   2.0000      -0.519259       -14.1298
 142   2.0000      -0.517544       -14.0831
 143   2.0000      -0.506302       -13.7772
 144   2.0000      -0.505875       -13.7656
 145   2.0000      -0.503756       -13.7079
 146   2.0000      -0.498457       -13.5637
 147   2.0000      -0.497894       -13.5484
 148   2.0000      -0.489657       -13.3242
 149   2.0000      -0.489336       -13.3155
 150   2.0000      -0.488095       -13.2817
 151   2.0000      -0.484333       -13.1794
 152   2.0000      -0.482741       -13.1360
 153   2.0000      -0.477086       -12.9822
 154   2.0000      -0.474143       -12.9021
 155   2.0000      -0.473465       -12.8836
 156   2.0000      -0.467969       -12.7341
 157   2.0000      -0.467766       -12.7286
 158   2.0000      -0.466441       -12.6925
 159   2.0000      -0.464321       -12.6348
 160   2.0000      -0.456822       -12.4308
 161   2.0000      -0.455467       -12.3939
 162   2.0000      -0.449664       -12.2360
 163   2.0000      -0.448821       -12.2130
 164   2.0000      -0.446157       -12.1406
 165   2.0000      -0.444922       -12.1069
 166   2.0000      -0.443917       -12.0796
 167   2.0000      -0.440440       -11.9850
 168   2.0000      -0.437094       -11.8939
 169   2.0000      -0.436598       -11.8804
 170   2.0000      -0.431926       -11.7533
 171   2.0000      -0.430348       -11.7104
 172   2.0000      -0.428138       -11.6502
 173   2.0000      -0.426510       -11.6059
 174   2.0000      -0.425333       -11.5739
 175   2.0000      -0.418519       -11.3885
 176   2.0000      -0.416708       -11.3392
 177   2.0000      -0.405230       -11.0269
 178   2.0000      -0.401927       -10.9370
 179   2.0000      -0.395685       -10.7671
 180   0.0000       0.102145         2.7795
 181   0.0000       0.119459         3.2506
 182   0.0000       0.120551         3.2804
 183   0.0000       0.124735         3.3942
 184   0.0000       0.129711         3.5296

MULLIKEN ATOMIC CHARGES
-----------------------
   0 O :   -0.606086
   1 H :    0.372588
   2 C :   -0.087793
   3 H :    0.074821
   4 H :    0.085343
   5 H :    0.153770
   6 O :   -0.576056
   7 H :    0.350055
   8 C :   -0.099578
   9 H :    0.125945
  10 H :    0.066457
  11 H :    0.140957
  12 O :   -0.538659
  13 H :    0.341414
  14 C :   -0.050177
  15 H :    0.072290
  16 H :    0.092325
  17 H :    0.091101
  18 O :   -0.571307
  19 H :    0.326007
  20 C :   -0.067563
  21 H :    0.130269
  22 H :    0.089854
  23 H :    0.099251
  24 O :   -0.572401
  25 H :    0.339784
  26 C :   -0.093018
  27 H :    0.107240
  28 H :    0.087840
  29 H :    0.144809
  30 O :   -0.543731
  31 H :    0.336170
  32 C :   -0.093609
  33 H :    0.129552
  34 H :    0.086013
  35 H :    0.090896
  36 O :   -0.575902
  37 H :    0.335236
  38 C :   -0.046590
  39 H :    0.109908
  40 H :    0.078503
  41 H :    0.105466
  42 O :   -0.605514
  43 H :    0.360977
  44 C :   -0.047249
  45 H :    0.085730
  46 H :    0.103534
  47 H :    0.082887
  48 O :   -0.580249
  49 H :    0.355482
  50 C :   -0.114972
  51 H :    0.142536
  52 H :    0.098408
  53 H :    0.119744
  54 O :   -0.590133
  55 H :    0.342294
  56 C :   -0.058400
  57 H :    0.089260
  58 H :    0.100169
  59 H :    0.107034
  60 O :   -0.544367
  61 H :    0.334282
  62 C :   -0.154028
  63 H :    0.127877
  64 H :    0.126275
  65 H :    0.110739
  66 O :   -0.533409
  67 H :    0.319520
  68 C :   -0.069428
  69 H :    0.116378
  70 H :    0.064914
  71 H :    0.098108
  72 O :   -0.536999
  73 H :    0.340860
  74 C :   -0.108104
  75 H :    0.093595
  76 H :    0.106292
  77 H :    0.105735
  78 O :   -0.558643
  79 H :    0.370341
  80 C :   -0.074249
  81 H :    0.102714
  82 H :    0.097847
  83 H :    0.039518
  84 O :   -0.555935
  85 H :    0.356881
  86 C :   -0.052310
  87 H :    0.074555
  88 H :    0.096205
  89 H :    0.076299
  90 O :   -0.537651
  91 H :    0.327103
  92 C :   -0.106346
  93 H :    0.104262
  94 H :    0.103951
  95 H :    0.119337
  96 O :   -0.527125
  97 H :    0.315720
  98 C :   -0.041883
  99 H :    0.077690
 100 H :    0.089208
 101 H :    0.078355
 102 O :   -0.538789
 103 H :    0.326388
 104 C :   -0.064191
 105 H :    0.079935
 106 H :    0.091138
 107 H :    0.099232
 108 O :   -0.535893
 109 H :    0.324866
 110 C :   -0.079570
 111 H :    0.110573
 112 H :    0.093722
 113 H :    0.082692
 114 O :   -0.525536
 115 H :    0.305143
 116 C :   -0.080198
 117 H :    0.109325
 118 H :    0.093894
 119 H :    0.100257
Sum of atomic charges:   -0.0000000

LOEWDIN ATOMIC CHARGES
----------------------
   0 O :   -0.129206
   1 H :    0.162849
   2 C :   -0.342730
   3 H :    0.081617
   4 H :    0.091187
   5 H :    0.108787
   6 O :   -0.114701
   7 H :    0.171344
   8 C :   -0.317259
   9 H :    0.104069
  10 H :    0.092469
  11 H :    0.086770
  12 O :   -0.073232
  13 H :    0.168474
  14 C :   -0.355446
  15 H :    0.084468
  16 H :    0.089498
  17 H :    0.090593
  18 O :   -0.098690
  19 H :    0.159870
  20 C :   -0.313091
  21 H :    0.111315
  22 H :    0.083133
  23 H :    0.068190
  24 O :   -0.149403
  25 H :    0.174960
  26 C :   -0.308130
  27 H :    0.098574
  28 H :    0.093675
  29 H :    0.101648
  30 O :   -0.078396
  31 H :    0.171967
  32 C :   -0.364364
  33 H :    0.115952
  34 H :    0.088703
  35 H :    0.077764
  36 O :   -0.097058
  37 H :    0.192821
  38 C :   -0.361054
  39 H :    0.098105
  40 H :    0.081951
  41 H :    0.086948
  42 O :   -0.140014
  43 H :    0.171524
  44 C :   -0.335770
  45 H :    0.083249
  46 H :    0.091371
  47 H :    0.083199
  48 O :   -0.116520
  49 H :    0.194908
  50 C :   -0.322223
  51 H :    0.112213
  52 H :    0.093893
  53 H :    0.095374
  54 O :   -0.144938
  55 H :    0.158707
  56 C :   -0.299277
  57 H :    0.091871
  58 H :    0.091943
  59 H :    0.071537
  60 O :   -0.162973
  61 H :    0.162716
  62 C :   -0.279699
  63 H :    0.103320
  64 H :    0.092493
  65 H :    0.100140
  66 O :   -0.121444
  67 H :    0.168894
  68 C :   -0.321169
  69 H :    0.110266
  70 H :    0.076862
  71 H :    0.087581
  72 O :   -0.133146
  73 H :    0.181515
  74 C :   -0.322763
  75 H :    0.091955
  76 H :    0.100916
  77 H :    0.090162
  78 O :   -0.066569
  79 H :    0.153590
  80 C :   -0.396006
  81 H :    0.103621
  82 H :    0.084294
  83 H :    0.091919
  84 O :   -0.101494
  85 H :    0.154786
  86 C :   -0.366040
  87 H :    0.088374
  88 H :    0.097207
  89 H :    0.088244
  90 O :   -0.115866
  91 H :    0.152337
  92 C :   -0.297150
  93 H :    0.106521
  94 H :    0.095740
  95 H :    0.089277
  96 O :   -0.054318
  97 H :    0.158419
  98 C :   -0.371896
  99 H :    0.093142
 100 H :    0.087831
 101 H :    0.079890
 102 O :   -0.087379
 103 H :    0.164895
 104 C :   -0.340348
 105 H :    0.090088
 106 H :    0.087685
 107 H :    0.091281
 108 O :   -0.071799
 109 H :    0.166341
 110 C :   -0.366532
 111 H :    0.087862
 112 H :    0.091602
 113 H :    0.094926
 114 O :   -0.076541
 115 H :    0.123577
 116 C :   -0.331085
 117 H :    0.105652
 118 H :    0.072384
 119 H :    0.099928

  Mayer bond orders larger than 0.100000
B(  0-O ,  1-H ) :   0.8488 B(  0-O ,  2-C ) :   0.8986 B(  2-C ,  3-H ) :   0.9858
B(  2-C ,  4-H ) :   0.9954 B(  2-C ,  5-H ) :   0.9878 B(  6-O ,  7-H ) :   0.8748
B(  6-O ,  8-C ) :   0.8943 B(  8-C ,  9-H ) :   0.9808 B(  8-C , 10-H ) :   0.9867
B(  8-C , 11-H ) :   0.9925 B( 12-O , 13-H ) :   0.8877 B( 12-O , 14-C ) :   0.9295
B( 14-C , 15-H ) :   0.9862 B( 14-C , 16-H ) :   0.9902 B( 14-C , 17-H ) :   1.0037
B( 18-O , 19-H ) :   0.8932 B( 18-O , 20-C ) :   0.8923 B( 20-C , 21-H ) :   0.9890
B( 20-C , 22-H ) :   0.9985 B( 20-C , 23-H ) :   0.9872 B( 24-O , 25-H ) :   0.8842
B( 24-O , 26-C ) :   0.9098 B( 26-C , 27-H ) :   0.9766 B( 26-C , 28-H ) :   0.9820
B( 26-C , 29-H ) :   0.9879 B( 30-O , 31-H ) :   0.8790 B( 30-O , 32-C ) :   0.9184
B( 32-C , 33-H ) :   0.9766 B( 32-C , 34-H ) :   1.0003 B( 32-C , 35-H ) :   0.9863
B( 36-O , 37-H ) :   0.8796 B( 36-O , 38-C ) :   0.8907 B( 38-C , 39-H ) :   0.9918
B( 38-C , 40-H ) :   0.9898 B( 38-C , 41-H ) :   0.9886 B( 42-O , 43-H ) :   0.8670
B( 42-O , 44-C ) :   0.9103 B( 44-C , 45-H ) :   0.9937 B( 44-C , 46-H ) :   0.9860
B( 44-C , 47-H ) :   0.9964 B( 48-O , 49-H ) :   0.8716 B( 48-O , 50-C ) :   0.8956
B( 50-C , 51-H ) :   0.9851 B( 50-C , 52-H ) :   0.9790 B( 50-C , 53-H ) :   0.9882
B( 54-O , 55-H ) :   0.8678 B( 54-O , 56-C ) :   0.9354 B( 56-C , 57-H ) :   0.9826
B( 56-C , 58-H ) :   0.9940 B( 56-C , 59-H ) :   0.9967 B( 60-O , 61-H ) :   0.8904
B( 60-O , 62-C ) :   0.9159 B( 62-C , 63-H ) :   0.9828 B( 62-C , 64-H ) :   0.9773
B( 62-C , 65-H ) :   0.9815 B( 66-O , 67-H ) :   0.8950 B( 66-O , 68-C ) :   0.9285
B( 68-C , 69-H ) :   0.9791 B( 68-C , 70-H ) :   0.9867 B( 68-C , 71-H ) :   0.9926
B( 72-O , 73-H ) :   0.8857 B( 72-O , 74-C ) :   0.9446 B( 74-C , 75-H ) :   0.9724
B( 74-C , 76-H ) :   0.9937 B( 74-C , 77-H ) :   0.9911 B( 78-O , 79-H ) :   0.8327
B( 78-O , 80-C ) :   0.9522 B( 80-C , 81-H ) :   0.9830 B( 80-C , 82-H ) :   0.9835
B( 80-C , 83-H ) :   1.0044 B( 84-O , 85-H ) :   0.8797 B( 84-O , 86-C ) :   0.9294
B( 86-C , 87-H ) :   0.9865 B( 86-C , 88-H ) :   0.9951 B( 86-C , 89-H ) :   0.9904
B( 90-O , 91-H ) :   0.8959 B( 90-O , 92-C ) :   0.9182 B( 92-C , 93-H ) :   0.9857
B( 92-C , 94-H ) :   0.9863 B( 92-C , 95-H ) :   0.9806 B( 96-O , 97-H ) :   0.9054
B( 96-O , 98-C ) :   0.9344 B( 98-C , 99-H ) :   0.9830 B( 98-C ,100-H ) :   1.0073
B( 98-C ,101-H ) :   0.9925 B(102-O ,103-H ) :   0.8956 B(102-O ,104-C ) :   0.9265
B(104-C ,105-H ) :   0.9872 B(104-C ,106-H ) :   0.9959 B(104-C ,107-H ) :   0.9893
B(108-O ,109-H ) :   0.8986 B(108-O ,110-C ) :   0.9247 B(110-C ,111-H ) :   0.9856
B(110-C ,112-H ) :   0.9911 B(110-C ,113-H ) :   1.0003 B(114-O ,115-H ) :   0.9146
B(114-O ,116-C ) :   0.9200 B(116-C ,117-H ) :   0.9843 B(116-C ,118-H ) :   1.0083
B(116-C ,119-H ) :   0.9853

MP2 TOTAL ENERGY:    -2310.107022022 Eh
FINAL SINGLE POINT ENERGY     -2310.107022021773

DIPOLE MOMENT
-------------
                                X             Y             Z
Electronic contribution:      2.70604      10.18795       1.88125
Nuclear contribution   :     -2.36967     -13.82156      -1.16157
                        -----------------------------------------
Total Dipole Moment    :      0.33637      -3.63361       0.71968
                        -----------------------------------------
Magnitude (a.u.)       :      3.71943
Magnitude (Debye)      :      9.45405

Rotational constants in cm-1:     0.001533     0.001485     0.001306
Rotational constants in MHz :    45.966777    44.524473    39.147098

                             ****ORCA TERMINATED NORMALLY****
TOTAL RUN TIME: 0 days 0 hours 19 minutes 10 seconds 755 msec
