                         Program Version 4.2.0 -  RELEASE  -
|  1> ! RI-MP2 def2-TZVP def2-TZVP/C TightSCF FrozenCore
|  2>
|  3> %pal nprocs 24 end
|  4> %maxcore 8000
|  5> %scf ConvForced true end
|  6>
|  7> *xyz  0  1
|  8> O     0.00000     0.00000     0.00000
|  9> H     0.76017    -0.59164     0.09309
| 10> C    -1.01132    -0.75494    -0.59786
| 11> H    -1.96446    -0.17931    -0.44304
| 12> H    -1.12986    -1.68393    -0.01903
| 13> H    -0.73917    -0.98362    -1.67680
| 14> O     2.16826    -2.08701     0.60347
| 15> H     2.01564    -3.02661     0.89880
| 16> C     2.73068    -1.24854     1.65310
| 17> H     3.41316    -0.56092     1.19112
| 18> H     3.22664    -1.85744     2.37059
| 19> H     1.89271    -0.81542     2.10610
| 20> O     1.25462     2.65390    -0.92550
| 21> H     0.41507     2.10541    -0.83180
| 22> C     1.94485     2.69702     0.30405
| 23> H     3.00192     2.97468     0.10237
| 24> H     1.92441     1.76679     0.82872
| 25> H     1.48496     3.45977     0.87784
| 26> O    -1.67281    -0.41829     3.76592
| 27> H    -1.05753     0.16459     4.21953
| 28> C    -0.93378    -1.51589     3.44895
| 29> H    -1.20983    -2.42901     3.98115
| 30> H     0.10051    -1.32296     3.70213
| 31> H    -1.16679    -1.68345     2.39398
| 32> O    -1.71312    -3.39194    -2.20426
| 33> H    -2.22283    -2.86593    -2.85433
| 34> C    -2.45952    -4.63905    -2.05700
| 35> H    -2.57457    -4.90850    -0.99693
| 36> H    -1.82291    -5.32594    -2.42563
| 37> H    -3.41140    -4.61840    -2.65026
| 38> O     1.59665    -4.57012     1.29104
| 39> H     2.02684    -5.24666     0.67319
| 40> C     1.47945    -5.15182     2.55224
| 41> H     1.38716    -4.40399     3.33755
| 42> H     2.33628    -5.79151     2.81470
| 43> H     0.54834    -5.80549     2.52657
| 44> O     4.08583    -0.66479    -2.91683
| 45> H     5.03360    -0.81541    -2.83191
| 46> C     3.77579     0.41748    -2.05017
| 47> H     2.74074     0.40523    -1.84973
| 48> H     3.97442     1.44443    -2.46470
| 49> H     4.26025     0.24818    -1.07841
| 50> O    -0.99164     4.43343    -2.49650
| 51> H    -0.90097     4.24015    -1.52952
| 52> C     0.36680     4.57337    -2.94171
| 53> H     0.38734     5.02753    -3.92863
| 54> H     0.87983     3.62557    -3.00061
| 55> H     0.97750     5.31192    -2.33772
| 56> O    -4.25594    -2.30671    -3.35334
| 57> H    -4.28121    -1.34093    -3.48959
| 58> C    -5.60139    -2.65012    -3.54666
| 59> H    -5.77629    -3.67756    -3.23233
| 60> H    -5.90892    -2.52982    -4.61199
| 61> H    -6.13842    -2.00753    -2.93760
| 62> O     2.63635    -1.30909    -5.15921
| 63> H     3.36318    -1.48406    -4.56596
| 64> C     1.51763    -1.67885    -4.35834
| 65> H     0.74556    -2.07358    -4.99729
| 66> H     1.08158    -0.85946    -3.81186
| 67> H     1.75182    -2.47823    -3.69990
| 68> O    -5.41155     0.84679     2.32296
| 69> H    -5.92824     1.05919     1.58831
| 70> C    -4.73166    -0.38947     2.06556
| 71> H    -4.66654    -0.96633     2.98717
| 72> H    -3.74158    -0.19621     1.71558
| 73> H    -5.31285    -0.91203     1.26865
| 74> O    -0.06278     2.09245    -5.85250
| 75> H    -0.67574     1.47795    -6.21649
| 76> C     1.17429     1.51456    -6.16087
| 77> H     1.88392     2.36799    -6.49128
| 78> H     1.04376     0.78859    -6.96143
| 79> H     1.61552     1.00279    -5.33866
| 80> O     5.96769     0.09143     1.96153
| 81> H     5.96405    -0.83476     2.20329
| 82> C     5.24598     0.78171     3.07486
| 83> H     5.77642     1.73328     3.27280
| 84> H     5.13743     0.08660     3.93076
| 85> H     4.20566     1.09789     2.66420
| 86> O     5.05775    -3.83355    -0.37649
| 87> H     4.26904    -3.27212    -0.07473
| 88> C     5.92259    -2.93186    -0.86718
| 89> H     6.57930    -3.47406    -1.47743
| 90> H     6.55047    -2.52322    -0.03051
| 91> H     5.39471    -2.19684    -1.39548
| 92> O    -0.68219     5.02131     3.97284
| 93> H    -1.31901     5.12677     3.31801
| 94> C    -0.18233     3.76042     4.03339
| 95> H     0.22087     3.60321     4.98950
| 96> H     0.65316     3.66517     3.23979
| 97> H    -0.97465     3.09516     3.79824
| 98> O    -4.51476     0.40393    -4.58404
| 99> H    -4.88202     0.55227    -5.45216
|100> C    -3.60266     1.42723    -4.33703
|101> H    -2.71641     0.98783    -3.81347
|102> H    -4.14323     2.15092    -3.72013
|103> H    -3.25305     1.83463    -5.34140
|104> O     4.57097     4.76206    -0.55078
|105> H     5.23731     4.06837    -0.26253
|106> C     4.54749     4.64374    -1.93295
|107> H     3.62473     5.03538    -2.34928
|108> H     4.71900     3.62971    -2.12390
|109> H     5.30743     5.33072    -2.34401
|110> O     6.16055     2.52336    -0.18794
|111> H     5.90696     1.77174     0.37098
|112> C     7.09442     2.00857    -1.13126
|113> H     6.89128     2.37053    -2.13423
|114> H     6.94209     0.94563    -1.19548
|115> H     8.15728     2.20954    -0.88133
|116> O     2.36282    -6.34494    -0.90143
|117> H     2.35229    -5.40181    -1.21465
|118> C     1.09681    -6.86715    -1.22740
|119> H     0.50873    -7.15523    -0.36079
|120> H     1.24986    -7.76701    -1.78410
|121> H     0.53722    -6.26004    -1.95636
|122> O     5.61598    -2.80317     2.71800
|123> H     5.41765    -3.69230     2.46517
|124> C     6.85797    -2.87329     3.43292
|125> H     7.46962    -2.08107     3.17729
|126> H     7.26384    -3.82062     3.08150
|127> H     6.71501    -2.91277     4.47625
|128> *
|129>
|130>                          ****END OF INPUT****

CARTESIAN COORDINATES (ANGSTROEM)
---------------------------------
  O      0.000000    0.000000    0.000000
  H      0.760170   -0.591640    0.093090
  C     -1.011320   -0.754940   -0.597860
  H     -1.964460   -0.179310   -0.443040
  H     -1.129860   -1.683930   -0.019030
  H     -0.739170   -0.983620   -1.676800
  O      2.168260   -2.087010    0.603470
  H      2.015640   -3.026610    0.898800
  C      2.730680   -1.248540    1.653100
  H      3.413160   -0.560920    1.191120
  H      3.226640   -1.857440    2.370590
  H      1.892710   -0.815420    2.106100
  O      1.254620    2.653900   -0.925500
  H      0.415070    2.105410   -0.831800
  C      1.944850    2.697020    0.304050
  H      3.001920    2.974680    0.102370
  H      1.924410    1.766790    0.828720
  H      1.484960    3.459770    0.877840
  O     -1.672810   -0.418290    3.765920
  H     -1.057530    0.164590    4.219530
  C     -0.933780   -1.515890    3.448950
  H     -1.209830   -2.429010    3.981150
  H      0.100510   -1.322960    3.702130
  H     -1.166790   -1.683450    2.393980
  O     -1.713120   -3.391940   -2.204260
  H     -2.222830   -2.865930   -2.854330
  C     -2.459520   -4.639050   -2.057000
  H     -2.574570   -4.908500   -0.996930
  H     -1.822910   -5.325940   -2.425630
  H     -3.411400   -4.618400   -2.650260
  O      1.596650   -4.570120    1.291040
  H      2.026840   -5.246660    0.673190
  C      1.479450   -5.151820    2.552240
  H      1.387160   -4.403990    3.337550
  H      2.336280   -5.791510    2.814700
  H      0.548340   -5.805490    2.526570
  O      4.085830   -0.664790   -2.916830
  H      5.033600   -0.815410   -2.831910
  C      3.775790    0.417480   -2.050170
  H      2.740740    0.405230   -1.849730
  H      3.974420    1.444430   -2.464700
  H      4.260250    0.248180   -1.078410
  O     -0.991640    4.433430   -2.496500
  H     -0.900970    4.240150   -1.529520
  C      0.366800    4.573370   -2.941710
  H      0.387340    5.027530   -3.928630
  H      0.879830    3.625570   -3.000610
  H      0.977500    5.311920   -2.337720
  O     -4.255940   -2.306710   -3.353340
  H     -4.281210   -1.340930   -3.489590
  C     -5.601390   -2.650120   -3.546660
  H     -5.776290   -3.677560   -3.232330
  H     -5.908920   -2.529820   -4.611990
  H     -6.138420   -2.007530   -2.937600
  O      2.636350   -1.309090   -5.159210
  H      3.363180   -1.484060   -4.565960
  C      1.517630   -1.678850   -4.358340
  H      0.745560   -2.073580   -4.997290
  H      1.081580   -0.859460   -3.811860
  H      1.751820   -2.478230   -3.699900
  O     -5.411550    0.846790    2.322960
  H     -5.928240    1.059190    1.588310
  C     -4.731660   -0.389470    2.065560
  H     -4.666540   -0.966330    2.987170
  H     -3.741580   -0.196210    1.715580
  H     -5.312850   -0.912030    1.268650
  O     -0.062780    2.092450   -5.852500
  H     -0.675740    1.477950   -6.216490
  C      1.174290    1.514560   -6.160870
  H      1.883920    2.367990   -6.491280
  H      1.043760    0.788590   -6.961430
  H      1.615520    1.002790   -5.338660
  O      5.967690    0.091430    1.961530
  H      5.964050   -0.834760    2.203290
  C      5.245980    0.781710    3.074860
  H      5.776420    1.733280    3.272800
  H      5.137430    0.086600    3.930760
  H      4.205660    1.097890    2.664200
  O      5.057750   -3.833550   -0.376490
  H      4.269040   -3.272120   -0.074730
  C      5.922590   -2.931860   -0.867180
  H      6.579300   -3.474060   -1.477430
  H      6.550470   -2.523220   -0.030510
  H      5.394710   -2.196840   -1.395480
  O     -0.682190    5.021310    3.972840
  H     -1.319010    5.126770    3.318010
  C     -0.182330    3.760420    4.033390
  H      0.220870    3.603210    4.989500
  H      0.653160    3.665170    3.239790
  H     -0.974650    3.095160    3.798240
  O     -4.514760    0.403930   -4.584040
  H     -4.882020    0.552270   -5.452160
  C     -3.602660    1.427230   -4.337030
  H     -2.716410    0.987830   -3.813470
  H     -4.143230    2.150920   -3.720130
  H     -3.253050    1.834630   -5.341400
  O      4.570970    4.762060   -0.550780
  H      5.237310    4.068370   -0.262530
  C      4.547490    4.643740   -1.932950
  H      3.624730    5.035380   -2.349280
  H      4.719000    3.629710   -2.123900
  H      5.307430    5.330720   -2.344010
  O      6.160550    2.523360   -0.187940
  H      5.906960    1.771740    0.370980
  C      7.094420    2.008570   -1.131260
  H      6.891280    2.370530   -2.134230
  H      6.942090    0.945630   -1.195480
  H      8.157280    2.209540   -0.881330
  O      2.362820   -6.344940   -0.901430
  H      2.352290   -5.401810   -1.214650
  C      1.096810   -6.867150   -1.227400
  H      0.508730   -7.155230   -0.360790
  H      1.249860   -7.767010   -1.784100
  H      0.537220   -6.260040   -1.956360
  O      5.615980   -2.803170    2.718000
  H      5.417650   -3.692300    2.465170
  C      6.857970   -2.873290    3.432920
  H      7.469620   -2.081070    3.177290
  H      7.263840   -3.820620    3.081500
  H      6.715010   -2.912770    4.476250

 Total Charge           Charge          ....    0
 Multiplicity           Mult            ....    1
 Number of Electrons    NEL             ....  360
 Basis Dimension        Dim             .... 1720

ORBITAL ENERGIES
----------------

  NO   OCC          E(Eh)            E(eV)
   0   2.0000     -20.591211      -560.3153
   1   2.0000     -20.590092      -560.2849
   2   2.0000     -20.586552      -560.1886
   3   2.0000     -20.573027      -559.8205
   4   2.0000     -20.570454      -559.7505
   5   2.0000     -20.569255      -559.7179
   6   2.0000     -20.569068      -559.7128
   7   2.0000     -20.563524      -559.5619
   8   2.0000     -20.553433      -559.2874
   9   2.0000     -20.551619      -559.2380
  10   2.0000     -20.542988      -559.0031
  11   2.0000     -20.535873      -558.8095
  12   2.0000     -20.535240      -558.7923
  13   2.0000     -20.534801      -558.7803
  14   2.0000     -20.534160      -558.7629
  15   2.0000     -20.533481      -558.7444
  16   2.0000     -20.528047      -558.5966
  17   2.0000     -20.527786      -558.5894
  18   2.0000     -20.524028      -558.4872
  19   2.0000     -20.508243      -558.0577
  20   2.0000     -11.304473      -307.6104
  21   2.0000     -11.299655      -307.4793
  22   2.0000     -11.290371      -307.2266
  23   2.0000     -11.283108      -307.0290
  24   2.0000     -11.281468      -306.9844
  25   2.0000     -11.280367      -306.9544
  26   2.0000     -11.266963      -306.5897
  27   2.0000     -11.264633      -306.5262
  28   2.0000     -11.264603      -306.5254
  29   2.0000     -11.263130      -306.4854
  30   2.0000     -11.261331      -306.4364
  31   2.0000     -11.257625      -306.3356
  32   2.0000     -11.255951      -306.2900
  33   2.0000     -11.255896      -306.2885
  34   2.0000     -11.255303      -306.2724
  35   2.0000     -11.245792      -306.0136
  36   2.0000     -11.240527      -305.8703
  37   2.0000     -11.237011      -305.7746
  38   2.0000     -11.230941      -305.6094
  39   2.0000     -11.228207      -305.5350
  40   2.0000      -1.397726       -38.0341
  41   2.0000      -1.394686       -37.9513
  42   2.0000      -1.387229       -37.7484
  43   2.0000      -1.386015       -37.7154
  44   2.0000      -1.384435       -37.6724
  45   2.0000      -1.381937       -37.6044
  46   2.0000      -1.376851       -37.4660
  47   2.0000      -1.374338       -37.3976
  48   2.0000      -1.371659       -37.3247
  49   2.0000      -1.362784       -37.0832
  50   2.0000      -1.352921       -36.8148
  51   2.0000      -1.352555       -36.8049
  52   2.0000      -1.349012       -36.7085
  53   2.0000      -1.345053       -36.6007
  54   2.0000      -1.331565       -36.2337
  55   2.0000      -1.330464       -36.2038
  56   2.0000      -1.323173       -36.0054
  57   2.0000      -1.320729       -35.9389
  58   2.0000      -1.320313       -35.9275
  59   2.0000      -1.311523       -35.6883
  60   2.0000      -0.968296       -26.3487
  61   2.0000      -0.949160       -25.8279
  62   2.0000      -0.944162       -25.6919
  63   2.0000      -0.938089       -25.5267
  64   2.0000      -0.935457       -25.4551
  65   2.0000      -0.929629       -25.2965
  66   2.0000      -0.928632       -25.2693
  67   2.0000      -0.925724       -25.1902
  68   2.0000      -0.924888       -25.1675
  69   2.0000      -0.924552       -25.1583
  70   2.0000      -0.921525       -25.0760
  71   2.0000      -0.921318       -25.0703
  72   2.0000      -0.918718       -24.9996
  73   2.0000      -0.912782       -24.8381
  74   2.0000      -0.907638       -24.6981
  75   2.0000      -0.900277       -24.4978
  76   2.0000      -0.895004       -24.3543
  77   2.0000      -0.891718       -24.2649
  78   2.0000      -0.887816       -24.1587
  79   2.0000      -0.877744       -23.8846
  80   2.0000      -0.738521       -20.0962
  81   2.0000      -0.732277       -19.9263
  82   2.0000      -0.717937       -19.5361
  83   2.0000      -0.715744       -19.4764
  84   2.0000      -0.715553       -19.4712
  85   2.0000      -0.713094       -19.4043
  86   2.0000      -0.712152       -19.3787
  87   2.0000      -0.703871       -19.1533
  88   2.0000      -0.700813       -19.0701
  89   2.0000      -0.698467       -19.0063
  90   2.0000      -0.692947       -18.8561
  91   2.0000      -0.689487       -18.7619
  92   2.0000      -0.682030       -18.5590
  93   2.0000      -0.677472       -18.4350
  94   2.0000      -0.677326       -18.4310
  95   2.0000      -0.670393       -18.2423
  96   2.0000      -0.665819       -18.1178
  97   2.0000      -0.663321       -18.0499
  98   2.0000      -0.661392       -17.9974
  99   2.0000      -0.660632       -17.9767
 100   2.0000      -0.649459       -17.6727
 101   2.0000      -0.645306       -17.5597
 102   2.0000      -0.642513       -17.4837
 103   2.0000      -0.641748       -17.4628
 104   2.0000      -0.640344       -17.4247
 105   2.0000      -0.637757       -17.3542
 106   2.0000      -0.635628       -17.2963
 107   2.0000      -0.630675       -17.1615
 108   2.0000      -0.629833       -17.1386
 109   2.0000      -0.627529       -17.0759
 110   2.0000      -0.626379       -17.0446
 111   2.0000      -0.623187       -16.9578
 112   2.0000      -0.622480       -16.9386
 113   2.0000      -0.618832       -16.8393
 114   2.0000      -0.618515       -16.8307
 115   2.0000      -0.615045       -16.7362
 116   2.0000      -0.614402       -16.7187
 117   2.0000      -0.613232       -16.6869
 118   2.0000      -0.611632       -16.6433
 119   2.0000      -0.607697       -16.5363
 120   2.0000      -0.607180       -16.5222
 121   2.0000      -0.606613       -16.5068
 122   2.0000      -0.605533       -16.4774
 123   2.0000      -0.603927       -16.4337
 124   2.0000      -0.601787       -16.3754
 125   2.0000      -0.598222       -16.2784
 126   2.0000      -0.596333       -16.2270
 127   2.0000      -0.595003       -16.1909
 128   2.0000      -0.594396       -16.1743
 129   2.0000      -0.590519       -16.0688
 130   2.0000      -0.584319       -15.9001
 131   2.0000      -0.583505       -15.8780
 132   2.0000      -0.582079       -15.8392
 133   2.0000      -0.576638       -15.6911
 134   2.0000      -0.571496       -15.5512
 135   2.0000      -0.570945       -15.5362
 136   2.0000      -0.570349       -15.5200
 137   2.0000      -0.567128       -15.4323
 138   2.0000      -0.555415       -15.1136
 139   2.0000      -0.550742       -14.9864
 140   2.0000      -0.542014       -14.7490
 141   2.0000      -0.535365       -14.5680
 142   2.0000      -0.531055       -14.4508
 143   2.0000      -0.521829       -14.1997
 144   2.0000      -0.519316       -14.1313
 145   2.0000      -0.513505       -13.9732
 146   2.0000      -0.511720       -13.9246
 147   2.0000      -0.508263       -13.8305
 148   2.0000      -0.506091       -13.7714
 149   2.0000      -0.500839       -13.6285
 150   2.0000      -0.499730       -13.5983
 151   2.0000      -0.494166       -13.4469
 152   2.0000      -0.493316       -13.4238
 153   2.0000      -0.489936       -13.3318
 154   2.0000      -0.486935       -13.2502
 155   2.0000      -0.483291       -13.1510
 156   2.0000      -0.480406       -13.0725
 157   2.0000      -0.479424       -13.0458
 158   2.0000      -0.474972       -12.9247
 159   2.0000      -0.474222       -12.9042
 160   2.0000      -0.470930       -12.8147
 161   2.0000      -0.468311       -12.7434
 162   2.0000      -0.464836       -12.6488
 163   2.0000      -0.462253       -12.5786
 164   2.0000      -0.460739       -12.5374
 165   2.0000      -0.456355       -12.4181
 166   2.0000      -0.452705       -12.3187
 167   2.0000      -0.449912       -12.2427
 168   2.0000      -0.448720       -12.2103
 169   2.0000      -0.444445       -12.0940
 170   2.0000      -0.438627       -11.9356
 171   2.0000      -0.436243       -11.8708
 172   2.0000      -0.434148       -11.8138
 173   2.0000      -0.431903       -11.7527
 174   2.0000      -0.430160       -11.7052
 175   2.0000      -0.427077       -11.6214
 176   2.0000      -0.421686       -11.4747
 177   2.0000      -0.421124       -11.4594
 178   2.0000      -0.415565       -11.3081
 179   2.0000      -0.401113       -10.9148
 180   0.0000       0.091034         2.4772
 181   0.0000       0.102773         2.7966
 182   0.0000       0.108371         2.9489
 183   0.0000       0.111872         3.0442
 184   0.0000       0.115134         3.1330

MULLIKEN ATOMIC CHARGES
-----------------------
   0 O :   -0.602989
   1 H :    0.370900
   2 C :   -0.041984
   3 H :    0.087466
   4 H :    0.099534
   5 H :    0.091706
   6 O :   -0.670233
   7 H :    0.403062
   8 C :   -0.116158
   9 H :    0.123254
  10 H :    0.123085
  11 H :    0.114713
  12 O :   -0.596417
  13 H :    0.356985
  14 C :   -0.031941
  15 H :    0.094320
  16 H :    0.075733
  17 H :    0.092504
  18 O :   -0.526999
  19 H :    0.328900
  20 C :   -0.042487
  21 H :    0.079544
  22 H :    0.067816
  23 H :    0.093501
  24 O :   -0.578182
  25 H :    0.359232
  26 C :   -0.066697
  27 H :    0.088278
  28 H :    0.078255
  29 H :    0.113274
  30 O :   -0.605971
  31 H :    0.376662
  32 C :   -0.088446
  33 H :    0.112465
  34 H :    0.108505
  35 H :    0.104435
  36 O :   -0.567908
  37 H :    0.326132
  38 C :   -0.051576
  39 H :    0.130285
  40 H :    0.113705
  41 H :    0.063602
  42 O :   -0.564791
  43 H :    0.324931
  44 C :   -0.068902
  45 H :    0.093932
  46 H :    0.122888
  47 H :    0.084058
  48 O :   -0.587924
  49 H :    0.368190
  50 C :   -0.055360
  51 H :    0.094802
  52 H :    0.082685
  53 H :    0.096832
  54 O :   -0.559980
  55 H :    0.350353
  56 C :   -0.073042
  57 H :    0.089666
  58 H :    0.092511
  59 H :    0.093116
  60 O :   -0.547240
  61 H :    0.316833
  62 C :   -0.069311
  63 H :    0.105661
  64 H :    0.107210
  65 H :    0.084511
  66 O :   -0.527093
  67 H :    0.316354
  68 C :   -0.086935
  69 H :    0.088305
  70 H :    0.088469
  71 H :    0.121279
  72 O :   -0.596725
  73 H :    0.363817
  74 C :   -0.137436
  75 H :    0.144175
  76 H :    0.125986
  77 H :    0.107867
  78 O :   -0.564749
  79 H :    0.340310
  80 C :   -0.011130
  81 H :    0.101638
  82 H :    0.068836
  83 H :    0.036609
  84 O :   -0.539373
  85 H :    0.325029
  86 C :   -0.048144
  87 H :    0.099508
  88 H :    0.061230
  89 H :    0.096123
  90 O :   -0.582198
  91 H :    0.342592
  92 C :   -0.068348
  93 H :    0.113996
  94 H :    0.108602
  95 H :    0.094656
  96 O :   -0.579138
  97 H :    0.375614
  98 C :   -0.033602
  99 H :    0.092516
 100 H :    0.059813
 101 H :    0.075250
 102 O :   -0.595916
 103 H :    0.370489
 104 C :   -0.079533
 105 H :    0.113601
 106 H :    0.089796
 107 H :    0.118201
 108 O :   -0.558193
 109 H :    0.357347
 110 C :   -0.094672
 111 H :    0.098440
 112 H :    0.106084
 113 H :    0.121728
 114 O :   -0.585460
 115 H :    0.351691
 116 C :   -0.098162
 117 H :    0.121764
 118 H :    0.108464
 119 H :    0.109137
Sum of atomic charges:   -0.0000000

LOEWDIN ATOMIC CHARGES
----------------------
   0 O :   -0.104812
   1 H :    0.176623
   2 C :   -0.369874
   3 H :    0.099110
   4 H :    0.091741
   5 H :    0.096637
   6 O :   -0.174009
   7 H :    0.158839
   8 C :   -0.321137
   9 H :    0.094633
  10 H :    0.088619
  11 H :    0.082049
  12 O :   -0.112218
  13 H :    0.196938
  14 C :   -0.350233
  15 H :    0.105059
  16 H :    0.078529
  17 H :    0.082507
  18 O :   -0.056929
  19 H :    0.177896
  20 C :   -0.382112
  21 H :    0.084467
  22 H :    0.083841
  23 H :    0.099849
  24 O :   -0.148020
  25 H :    0.177105
  26 C :   -0.301576
  27 H :    0.094123
  28 H :    0.065671
  29 H :    0.103206
  30 O :   -0.092161
  31 H :    0.206087
  32 C :   -0.358949
  33 H :    0.097661
  34 H :    0.094099
  35 H :    0.103267
  36 O :   -0.096075
  37 H :    0.163251
  38 C :   -0.330266
  39 H :    0.098131
  40 H :    0.104384
  41 H :    0.089280
  42 O :   -0.141721
  43 H :    0.182169
  44 C :   -0.342059
  45 H :    0.091363
  46 H :    0.090060
  47 H :    0.091279
  48 O :   -0.113395
  49 H :    0.185856
  50 C :   -0.344862
  51 H :    0.094642
  52 H :    0.092525
  53 H :    0.081185
  54 O :   -0.112597
  55 H :    0.159668
  56 C :   -0.340796
  57 H :    0.090909
  58 H :    0.085247
  59 H :    0.085762
  60 O :   -0.108593
  61 H :    0.139536
  62 C :   -0.312101
  63 H :    0.098916
  64 H :    0.085954
  65 H :    0.090871
  66 O :   -0.087637
  67 H :    0.156291
  68 C :   -0.350660
  69 H :    0.103241
  70 H :    0.089475
  71 H :    0.087980
  72 O :   -0.170908
  73 H :    0.159220
  74 C :   -0.294947
  75 H :    0.105723
  76 H :    0.100648
  77 H :    0.105374
  78 O :   -0.075539
  79 H :    0.208561
  80 C :   -0.399658
  81 H :    0.090491
  82 H :    0.088735
  83 H :    0.076599
  84 O :   -0.042887
  85 H :    0.147119
  86 C :   -0.370596
  87 H :    0.088588
  88 H :    0.094160
  89 H :    0.084325
  90 O :   -0.101050
  91 H :    0.173033
  92 C :   -0.349003
  93 H :    0.105646
  94 H :    0.097199
  95 H :    0.100784
  96 O :   -0.118361
  97 H :    0.186459
  98 C :   -0.367661
  99 H :    0.094343
 100 H :    0.073646
 101 H :    0.087232
 102 O :   -0.101014
 103 H :    0.184405
 104 C :   -0.327257
 105 H :    0.096930
 106 H :    0.088522
 107 H :    0.099935
 108 O :   -0.104815
 109 H :    0.199818
 110 C :   -0.349331
 111 H :    0.092588
 112 H :    0.094941
 113 H :    0.101547
 114 O :   -0.117546
 115 H :    0.167127
 116 C :   -0.303442
 117 H :    0.086563
 118 H :    0.102026
 119 H :    0.087986

  Mayer bond orders larger than 0.100000
B(  0-O ,  1-H ) :   0.8568 B(  0-O ,  2-C ) :   0.8860 B(  2-C ,  3-H ) :   0.9849
B(  2-C ,  4-H ) :   0.9929 B(  2-C ,  5-H ) :   0.9888 B(  6-O ,  7-H ) :   0.7877
B(  6-O ,  8-C ) :   0.8671 B(  8-C ,  9-H ) :   0.9915 B(  8-C , 10-H ) :   0.9809
B(  8-C , 11-H ) :   0.9835 B( 12-O , 13-H ) :   0.8521 B( 12-O , 14-C ) :   0.9037
B( 14-C , 15-H ) :   0.9774 B( 14-C , 16-H ) :   0.9837 B( 14-C , 17-H ) :   1.0070
B( 18-O , 19-H ) :   0.8938 B( 18-O , 20-C ) :   0.9490 B( 20-C , 21-H ) :   0.9861
B( 20-C , 22-H ) :   1.0036 B( 20-C , 23-H ) :   0.9920 B( 24-O , 25-H ) :   0.8655
B( 24-O , 26-C ) :   0.9342 B( 26-C , 27-H ) :   0.9895 B( 26-C , 28-H ) :   0.9937
B( 26-C , 29-H ) :   0.9903 B( 30-O , 31-H ) :   0.8099 B( 30-O , 32-C ) :   0.8908
B( 32-C , 33-H ) :   0.9837 B( 32-C , 34-H ) :   0.9885 B( 32-C , 35-H ) :   0.9928
B( 36-O , 37-H ) :   0.8895 B( 36-O , 38-C ) :   0.8736 B( 38-C , 39-H ) :   0.9845
B( 38-C , 40-H ) :   0.9960 B( 38-C , 41-H ) :   0.9876 B( 42-O , 43-H ) :   0.8917
B( 42-O , 44-C ) :   0.9145 B( 44-C , 45-H ) :   0.9807 B( 44-C , 46-H ) :   0.9893
B( 44-C , 47-H ) :   0.9931 B( 48-O , 49-H ) :   0.8528 B( 48-O , 50-C ) :   0.9196
B( 50-C , 51-H ) :   0.9858 B( 50-C , 52-H ) :   0.9894 B( 50-C , 53-H ) :   1.0022
B( 54-O , 55-H ) :   0.8742 B( 54-O , 56-C ) :   0.9351 B( 56-C , 57-H ) :   0.9882
B( 56-C , 58-H ) :   0.9938 B( 56-C , 59-H ) :   0.9968 B( 60-O , 61-H ) :   0.9054
B( 60-O , 62-C ) :   0.9196 B( 62-C , 63-H ) :   0.9843 B( 62-C , 64-H ) :   0.9853
B( 62-C , 65-H ) :   0.9960 B( 66-O , 67-H ) :   0.9044 B( 66-O , 68-C ) :   0.9230
B( 68-C , 69-H ) :   0.9912 B( 68-C , 70-H ) :   1.0005 B( 68-C , 71-H ) :   0.9802
B( 72-O , 73-H ) :   0.8729 B( 72-O , 74-C ) :   0.8859 B( 74-C , 75-H ) :   0.9804
B( 74-C , 76-H ) :   0.9755 B( 74-C , 77-H ) :   0.9881 B( 78-O , 79-H ) :   0.8656
B( 78-O , 80-C ) :   0.9273 B( 80-C , 81-H ) :   0.9882 B( 80-C , 82-H ) :   0.9920
B( 80-C , 83-H ) :   1.0009 B( 84-O , 85-H ) :   0.8970 B( 84-O , 86-C ) :   0.9323
B( 86-C , 87-H ) :   0.9811 B( 86-C , 88-H ) :   0.9902 B( 86-C , 89-H ) :   1.0023
B( 90-O , 91-H ) :   0.8857 B( 90-O , 92-C ) :   0.8628 B( 92-C , 93-H ) :   0.9865
B( 92-C , 94-H ) :   0.9895 B( 92-C , 95-H ) :   0.9947 B( 96-O , 97-H ) :   0.8396
B( 96-O , 98-C ) :   0.9382 B( 98-C , 99-H ) :   0.9925 B( 98-C ,100-H ) :   0.9990
B( 98-C ,101-H ) :   0.9959 B(102-O ,103-H ) :   0.8585 B(102-O ,104-C ) :   0.8913
B(104-C ,105-H ) :   0.9901 B(104-C ,106-H ) :   0.9944 B(104-C ,107-H ) :   0.9856
B(108-O ,109-H ) :   0.8699 B(108-O ,110-C ) :   0.9090 B(110-C ,111-H ) :   0.9885
B(110-C ,112-H ) :   0.9865 B(110-C ,113-H ) :   0.9943 B(114-O ,115-H ) :   0.8790
B(114-O ,116-C ) :   0.8900 B(116-C ,117-H ) :   0.9868 B(116-C ,118-H ) :   1.0014
B(116-C ,119-H ) :   0.9833

MP2 TOTAL ENERGY:    -2310.141129522 Eh
FINAL SINGLE POINT ENERGY     -2310.141129521872

DIPOLE MOMENT
-------------
                                X             Y             Z
Electronic contribution:     -3.46794       4.88836      -1.56852
Nuclear contribution   :      4.46199      -9.51896       2.56555
                        -----------------------------------------
Total Dipole Moment    :      0.99405      -4.63061       0.99703
                        -----------------------------------------
Magnitude (a.u.)       :      4.83991
Magnitude (Debye)      :     12.30207

Rotational constants in cm-1:     0.001526     0.001278     0.001143
Rotational constants in MHz :    45.761137    38.301959    34.263271

                             ****ORCA TERMINATED NORMALLY****
TOTAL RUN TIME: 0 days 0 hours 18 minutes 10 seconds 995 msec
