                         Program Version 4.2.0 -  RELEASE  -
|  1> ! RI-MP2 def2-TZVP def2-TZVP/C TightSCF FrozenCore
|  2>
|  3> %pal nprocs 24 end
|  4> %maxcore 8000
|  5> %scf ConvForced true end
|  6>
|  7> *xyz  0  1
|  8> O     0.00000     0.00000     0.00000
|  9> H     0.07938     0.32993    -0.95720
| 10> C    -1.10074    -0.68898     0.29082
| 11> H    -1.53782    -0.32823     1.21678
| 12> H    -0.92164    -1.78574     0.38104
| 13> H    -1.84459    -0.62452    -0.51254
| 14> O     0.11192     1.29085    -2.79603
| 15> H     0.45514     2.21011    -2.55833
| 16> C     1.23804     0.45369    -2.90404
| 17> H     1.00442    -0.51965    -2.55018
| 18> H     1.96891     1.03058    -2.35721
| 19> H     1.52913     0.49481    -3.90650
| 20> O     0.60738     1.32524     3.02857
| 21> H     0.00715     1.10352     2.24369
| 22> C     1.07232     0.10038     3.57103
| 23> H     1.48362     0.28069     4.56337
| 24> H     1.89926    -0.33761     2.90227
| 25> H     0.21375    -0.52619     3.65339
| 26> O    -2.28658     2.26908     2.98672
| 27> H    -2.26719     2.71794     3.89051
| 28> C    -3.32626     2.69705     2.14699
| 29> H    -3.72800     1.88348     1.60038
| 30> H    -3.00787     3.45914     1.52105
| 31> H    -4.13928     3.12202     2.74459
| 32> O     1.54776     4.27049    -1.41013
| 33> H     1.39573     5.12757    -1.01688
| 34> C     1.91389     3.34608    -0.35610
| 35> H     2.33912     2.42277    -0.82760
| 36> H     0.99622     3.05647     0.26237
| 37> H     2.67976     3.73859     0.36998
| 38> O    -0.20106     4.54827     1.93448
| 39> H     0.12005     3.74660     2.35948
| 40> C    -0.97167     5.25054     2.89065
| 41> H    -1.36469     6.20718     2.43822
| 42> H    -0.38348     5.53247     3.78765
| 43> H    -1.87763     4.61867     3.06542
| 44> O    -4.43983     1.40935    -1.84039
| 45> H    -4.51646     1.98031    -2.60341
| 46> C    -3.91008     0.24274    -2.35388
| 47> H    -4.26812    -0.64992    -1.80846
| 48> H    -2.87193     0.34671    -2.29077
| 49> H    -4.18099     0.20547    -3.38977
| 50> O     2.89219     3.19684     2.78182
| 51> H     2.26750     2.49812     3.10905
| 52> C     3.98734     3.15245     3.63796
| 53> H     4.08352     4.05961     4.20113
| 54> H     4.85225     2.95991     3.00258
| 55> H     3.78917     2.31113     4.30166
| 56> O     4.62888    -1.73279    -1.56421
| 57> H     5.00771    -2.45466    -0.98660
| 58> C     3.41546    -1.57057    -1.05541
| 59> H     3.13857    -0.50430    -1.05321
| 60> H     3.52372    -1.92748    -0.00192
| 61> H     2.69649    -2.20576    -1.54980
| 62> O    -2.09795    -2.11934    -4.26273
| 63> H    -2.88247    -2.57756    -3.89259
| 64> C    -1.00823    -3.00751    -4.00972
| 65> H    -0.00491    -2.53729    -4.26006
| 66> H    -1.11250    -3.87715    -4.65697
| 67> H    -0.92249    -3.33260    -2.91235
| 68> O    -2.24629     4.66297    -0.67806
| 69> H    -1.37674     4.20478    -0.75367
| 70> C    -2.03200     6.02863    -0.71354
| 71> H    -3.04215     6.51116    -0.72653
| 72> H    -1.36497     6.28193    -1.57442
| 73> H    -1.54659     6.37631     0.18246
| 74> O    -2.84379    -0.48385     4.62765
| 75> H    -2.81687     0.41978     4.25721
| 76> C    -2.68823    -1.47448     3.62715
| 77> H    -2.96033    -2.47323     4.11701
| 78> H    -1.65514    -1.56939     3.26990
| 79> H    -3.32836    -1.22773     2.75991
| 80> O     2.67037    -1.89830    -4.39235
| 81> H     3.56547    -1.83721    -4.07318
| 82> C     2.76534    -2.84797    -5.38976
| 83> H     1.81084    -3.38339    -5.52932
| 84> H     3.47468    -3.57815    -5.10692
| 85> H     3.01890    -2.36760    -6.36874
| 86> O    -0.36876    -3.24019     4.58647
| 87> H     0.57256    -3.31397     4.84359
| 88> C    -0.77622    -4.49497     4.31793
| 89> H    -1.85278    -4.61143     4.55675
| 90> H    -0.15173    -5.21174     4.90488
| 91> H    -0.59901    -4.70624     3.26431
| 92> O    -3.91375    -3.62126    -1.84497
| 93> H    -4.66793    -3.77583    -2.37910
| 94> C    -4.18822    -4.02898    -0.54663
| 95> H    -3.56068    -4.89479    -0.24836
| 96> H    -5.22551    -4.31632    -0.51263
| 97> H    -4.04861    -3.21638     0.09937
| 98> O     1.97226    -5.45035    -2.35088
| 99> H     1.48863    -6.26025    -2.34702
|100> C     3.40429    -5.84361    -2.45368
|101> H     4.08547    -5.45425    -1.69100
|102> H     3.80621    -5.44741    -3.37201
|103> H     3.51542    -6.93676    -2.46875
|104> O     0.96588     6.29710     0.05500
|105> H     0.68084     5.80523     0.89095
|106> C     1.82942     7.35765     0.46912
|107> H     2.08215     7.96547    -0.36438
|108> H     2.72950     6.87847     0.84554
|109> H     1.34007     8.00792     1.22985
|110> O     3.32400    -5.22471     1.85717
|111> H     3.20280    -5.56813     2.72615
|112> C     4.57973    -4.62096     1.81972
|113> H     4.60341    -3.66337     1.34835
|114> H     5.30091    -5.29795     1.47129
|115> H     4.83651    -4.37689     2.89777
|116> O     0.35552    -6.81914     0.82476
|117> H     0.92998    -7.13285     1.52124
|118> C     0.64956    -5.42906     0.66014
|119> H    -0.07280    -4.88298     0.03482
|120> H     1.57420    -5.34483     0.11870
|121> H     0.88080    -5.00006     1.56231
|122> O     5.14486     3.89778    -2.62299
|123> H     6.10270     3.99770    -2.63314
|124> C     4.79727     3.12110    -3.79631
|125> H     4.14971     3.70824    -4.40072
|126> H     4.39538     2.18810    -3.49348
|127> H     5.71744     2.89670    -4.38361
|128>
|129> *
|130>
|131>                          ****END OF INPUT****

CARTESIAN COORDINATES (ANGSTROEM)
---------------------------------
  O      0.000000    0.000000    0.000000
  H      0.079380    0.329930   -0.957200
  C     -1.100740   -0.688980    0.290820
  H     -1.537820   -0.328230    1.216780
  H     -0.921640   -1.785740    0.381040
  H     -1.844590   -0.624520   -0.512540
  O      0.111920    1.290850   -2.796030
  H      0.455140    2.210110   -2.558330
  C      1.238040    0.453690   -2.904040
  H      1.004420   -0.519650   -2.550180
  H      1.968910    1.030580   -2.357210
  H      1.529130    0.494810   -3.906500
  O      0.607380    1.325240    3.028570
  H      0.007150    1.103520    2.243690
  C      1.072320    0.100380    3.571030
  H      1.483620    0.280690    4.563370
  H      1.899260   -0.337610    2.902270
  H      0.213750   -0.526190    3.653390
  O     -2.286580    2.269080    2.986720
  H     -2.267190    2.717940    3.890510
  C     -3.326260    2.697050    2.146990
  H     -3.728000    1.883480    1.600380
  H     -3.007870    3.459140    1.521050
  H     -4.139280    3.122020    2.744590
  O      1.547760    4.270490   -1.410130
  H      1.395730    5.127570   -1.016880
  C      1.913890    3.346080   -0.356100
  H      2.339120    2.422770   -0.827600
  H      0.996220    3.056470    0.262370
  H      2.679760    3.738590    0.369980
  O     -0.201060    4.548270    1.934480
  H      0.120050    3.746600    2.359480
  C     -0.971670    5.250540    2.890650
  H     -1.364690    6.207180    2.438220
  H     -0.383480    5.532470    3.787650
  H     -1.877630    4.618670    3.065420
  O     -4.439830    1.409350   -1.840390
  H     -4.516460    1.980310   -2.603410
  C     -3.910080    0.242740   -2.353880
  H     -4.268120   -0.649920   -1.808460
  H     -2.871930    0.346710   -2.290770
  H     -4.180990    0.205470   -3.389770
  O      2.892190    3.196840    2.781820
  H      2.267500    2.498120    3.109050
  C      3.987340    3.152450    3.637960
  H      4.083520    4.059610    4.201130
  H      4.852250    2.959910    3.002580
  H      3.789170    2.311130    4.301660
  O      4.628880   -1.732790   -1.564210
  H      5.007710   -2.454660   -0.986600
  C      3.415460   -1.570570   -1.055410
  H      3.138570   -0.504300   -1.053210
  H      3.523720   -1.927480   -0.001920
  H      2.696490   -2.205760   -1.549800
  O     -2.097950   -2.119340   -4.262730
  H     -2.882470   -2.577560   -3.892590
  C     -1.008230   -3.007510   -4.009720
  H     -0.004910   -2.537290   -4.260060
  H     -1.112500   -3.877150   -4.656970
  H     -0.922490   -3.332600   -2.912350
  O     -2.246290    4.662970   -0.678060
  H     -1.376740    4.204780   -0.753670
  C     -2.032000    6.028630   -0.713540
  H     -3.042150    6.511160   -0.726530
  H     -1.364970    6.281930   -1.574420
  H     -1.546590    6.376310    0.182460
  O     -2.843790   -0.483850    4.627650
  H     -2.816870    0.419780    4.257210
  C     -2.688230   -1.474480    3.627150
  H     -2.960330   -2.473230    4.117010
  H     -1.655140   -1.569390    3.269900
  H     -3.328360   -1.227730    2.759910
  O      2.670370   -1.898300   -4.392350
  H      3.565470   -1.837210   -4.073180
  C      2.765340   -2.847970   -5.389760
  H      1.810840   -3.383390   -5.529320
  H      3.474680   -3.578150   -5.106920
  H      3.018900   -2.367600   -6.368740
  O     -0.368760   -3.240190    4.586470
  H      0.572560   -3.313970    4.843590
  C     -0.776220   -4.494970    4.317930
  H     -1.852780   -4.611430    4.556750
  H     -0.151730   -5.211740    4.904880
  H     -0.599010   -4.706240    3.264310
  O     -3.913750   -3.621260   -1.844970
  H     -4.667930   -3.775830   -2.379100
  C     -4.188220   -4.028980   -0.546630
  H     -3.560680   -4.894790   -0.248360
  H     -5.225510   -4.316320   -0.512630
  H     -4.048610   -3.216380    0.099370
  O      1.972260   -5.450350   -2.350880
  H      1.488630   -6.260250   -2.347020
  C      3.404290   -5.843610   -2.453680
  H      4.085470   -5.454250   -1.691000
  H      3.806210   -5.447410   -3.372010
  H      3.515420   -6.936760   -2.468750
  O      0.965880    6.297100    0.055000
  H      0.680840    5.805230    0.890950
  C      1.829420    7.357650    0.469120
  H      2.082150    7.965470   -0.364380
  H      2.729500    6.878470    0.845540
  H      1.340070    8.007920    1.229850
  O      3.324000   -5.224710    1.857170
  H      3.202800   -5.568130    2.726150
  C      4.579730   -4.620960    1.819720
  H      4.603410   -3.663370    1.348350
  H      5.300910   -5.297950    1.471290
  H      4.836510   -4.376890    2.897770
  O      0.355520   -6.819140    0.824760
  H      0.929980   -7.132850    1.521240
  C      0.649560   -5.429060    0.660140
  H     -0.072800   -4.882980    0.034820
  H      1.574200   -5.344830    0.118700
  H      0.880800   -5.000060    1.562310
  O      5.144860    3.897780   -2.622990
  H      6.102700    3.997700   -2.633140
  C      4.797270    3.121100   -3.796310
  H      4.149710    3.708240   -4.400720
  H      4.395380    2.188100   -3.493480
  H      5.717440    2.896700   -4.383610

 Total Charge           Charge          ....    0
 Multiplicity           Mult            ....    1
 Number of Electrons    NEL             ....  360
 Basis Dimension        Dim             .... 1720

ORBITAL ENERGIES
----------------

  NO   OCC          E(Eh)            E(eV)
   0   2.0000     -20.577710      -559.9480
   1   2.0000     -20.560066      -559.4678
   2   2.0000     -20.559703      -559.4580
   3   2.0000     -20.558533      -559.4261
   4   2.0000     -20.558218      -559.4176
   5   2.0000     -20.558002      -559.4117
   6   2.0000     -20.555593      -559.3461
   7   2.0000     -20.554175      -559.3075
   8   2.0000     -20.544744      -559.0509
   9   2.0000     -20.543345      -559.0128
  10   2.0000     -20.542537      -558.9909
  11   2.0000     -20.534611      -558.7752
  12   2.0000     -20.531448      -558.6891
  13   2.0000     -20.530925      -558.6749
  14   2.0000     -20.530593      -558.6658
  15   2.0000     -20.530331      -558.6587
  16   2.0000     -20.527466      -558.5808
  17   2.0000     -20.520403      -558.3886
  18   2.0000     -20.518646      -558.3408
  19   2.0000     -20.496913      -557.7494
  20   2.0000     -11.291858      -307.2671
  21   2.0000     -11.282684      -307.0174
  22   2.0000     -11.280328      -306.9533
  23   2.0000     -11.271422      -306.7110
  24   2.0000     -11.268010      -306.6181
  25   2.0000     -11.263439      -306.4937
  26   2.0000     -11.259641      -306.3904
  27   2.0000     -11.257791      -306.3401
  28   2.0000     -11.253912      -306.2345
  29   2.0000     -11.253598      -306.2260
  30   2.0000     -11.252799      -306.2042
  31   2.0000     -11.251935      -306.1807
  32   2.0000     -11.251927      -306.1805
  33   2.0000     -11.243236      -305.9440
  34   2.0000     -11.242434      -305.9222
  35   2.0000     -11.239309      -305.8372
  36   2.0000     -11.237010      -305.7746
  37   2.0000     -11.236518      -305.7612
  38   2.0000     -11.230256      -305.5908
  39   2.0000     -11.224970      -305.4470
  40   2.0000      -1.398380       -38.0519
  41   2.0000      -1.392355       -37.8879
  42   2.0000      -1.389016       -37.7970
  43   2.0000      -1.378684       -37.5159
  44   2.0000      -1.367791       -37.2195
  45   2.0000      -1.367419       -37.2094
  46   2.0000      -1.355264       -36.8786
  47   2.0000      -1.352209       -36.7955
  48   2.0000      -1.347599       -36.6700
  49   2.0000      -1.343642       -36.5624
  50   2.0000      -1.342452       -36.5300
  51   2.0000      -1.342291       -36.5256
  52   2.0000      -1.340948       -36.4890
  53   2.0000      -1.340194       -36.4685
  54   2.0000      -1.330914       -36.2160
  55   2.0000      -1.329135       -36.1676
  56   2.0000      -1.327323       -36.1183
  57   2.0000      -1.324941       -36.0535
  58   2.0000      -1.322820       -35.9958
  59   2.0000      -1.293989       -35.2112
  60   2.0000      -0.956236       -26.0205
  61   2.0000      -0.936320       -25.4786
  62   2.0000      -0.932710       -25.3803
  63   2.0000      -0.922497       -25.1024
  64   2.0000      -0.919695       -25.0262
  65   2.0000      -0.919114       -25.0104
  66   2.0000      -0.915175       -24.9032
  67   2.0000      -0.914082       -24.8734
  68   2.0000      -0.913871       -24.8677
  69   2.0000      -0.912655       -24.8346
  70   2.0000      -0.911899       -24.8140
  71   2.0000      -0.906678       -24.6720
  72   2.0000      -0.906282       -24.6612
  73   2.0000      -0.900090       -24.4927
  74   2.0000      -0.896374       -24.3916
  75   2.0000      -0.892183       -24.2775
  76   2.0000      -0.890331       -24.2271
  77   2.0000      -0.882781       -24.0217
  78   2.0000      -0.882444       -24.0125
  79   2.0000      -0.869246       -23.6534
  80   2.0000      -0.723880       -19.6978
  81   2.0000      -0.710258       -19.3271
  82   2.0000      -0.708118       -19.2689
  83   2.0000      -0.707333       -19.2475
  84   2.0000      -0.706186       -19.2163
  85   2.0000      -0.695262       -18.9191
  86   2.0000      -0.694360       -18.8945
  87   2.0000      -0.688438       -18.7334
  88   2.0000      -0.685735       -18.6598
  89   2.0000      -0.685173       -18.6445
  90   2.0000      -0.682803       -18.5800
  91   2.0000      -0.670813       -18.2538
  92   2.0000      -0.669987       -18.2313
  93   2.0000      -0.669077       -18.2065
  94   2.0000      -0.667311       -18.1585
  95   2.0000      -0.666484       -18.1360
  96   2.0000      -0.664557       -18.0835
  97   2.0000      -0.663527       -18.0555
  98   2.0000      -0.660913       -17.9844
  99   2.0000      -0.654519       -17.8104
 100   2.0000      -0.652068       -17.7437
 101   2.0000      -0.641592       -17.4586
 102   2.0000      -0.639396       -17.3989
 103   2.0000      -0.639009       -17.3883
 104   2.0000      -0.633468       -17.2375
 105   2.0000      -0.632162       -17.2020
 106   2.0000      -0.621733       -16.9182
 107   2.0000      -0.620907       -16.8957
 108   2.0000      -0.619364       -16.8537
 109   2.0000      -0.616580       -16.7780
 110   2.0000      -0.615033       -16.7359
 111   2.0000      -0.613807       -16.7025
 112   2.0000      -0.613320       -16.6893
 113   2.0000      -0.612475       -16.6663
 114   2.0000      -0.611086       -16.6285
 115   2.0000      -0.609803       -16.5936
 116   2.0000      -0.608485       -16.5577
 117   2.0000      -0.606823       -16.5125
 118   2.0000      -0.603252       -16.4153
 119   2.0000      -0.601890       -16.3783
 120   2.0000      -0.599779       -16.3208
 121   2.0000      -0.597806       -16.2671
 122   2.0000      -0.596288       -16.2258
 123   2.0000      -0.595126       -16.1942
 124   2.0000      -0.592541       -16.1239
 125   2.0000      -0.592227       -16.1153
 126   2.0000      -0.588917       -16.0252
 127   2.0000      -0.588588       -16.0163
 128   2.0000      -0.586380       -15.9562
 129   2.0000      -0.584318       -15.9001
 130   2.0000      -0.581254       -15.8167
 131   2.0000      -0.577376       -15.7112
 132   2.0000      -0.575921       -15.6716
 133   2.0000      -0.570757       -15.5311
 134   2.0000      -0.568015       -15.4565
 135   2.0000      -0.562896       -15.3172
 136   2.0000      -0.562703       -15.3119
 137   2.0000      -0.558759       -15.2046
 138   2.0000      -0.556018       -15.1300
 139   2.0000      -0.536855       -14.6086
 140   2.0000      -0.518392       -14.1062
 141   2.0000      -0.513561       -13.9747
 142   2.0000      -0.505845       -13.7648
 143   2.0000      -0.502514       -13.6741
 144   2.0000      -0.500896       -13.6301
 145   2.0000      -0.497742       -13.5442
 146   2.0000      -0.495150       -13.4737
 147   2.0000      -0.493259       -13.4223
 148   2.0000      -0.491473       -13.3736
 149   2.0000      -0.487192       -13.2572
 150   2.0000      -0.484116       -13.1735
 151   2.0000      -0.482411       -13.1271
 152   2.0000      -0.480400       -13.0724
 153   2.0000      -0.478761       -13.0278
 154   2.0000      -0.475391       -12.9360
 155   2.0000      -0.473187       -12.8761
 156   2.0000      -0.471261       -12.8237
 157   2.0000      -0.467194       -12.7130
 158   2.0000      -0.463510       -12.6127
 159   2.0000      -0.460466       -12.5299
 160   2.0000      -0.458104       -12.4656
 161   2.0000      -0.456594       -12.4245
 162   2.0000      -0.453207       -12.3324
 163   2.0000      -0.451571       -12.2879
 164   2.0000      -0.447443       -12.1755
 165   2.0000      -0.444667       -12.1000
 166   2.0000      -0.440707       -11.9923
 167   2.0000      -0.440006       -11.9732
 168   2.0000      -0.439275       -11.9533
 169   2.0000      -0.433975       -11.8091
 170   2.0000      -0.431660       -11.7461
 171   2.0000      -0.428850       -11.6696
 172   2.0000      -0.425656       -11.5827
 173   2.0000      -0.423450       -11.5227
 174   2.0000      -0.422369       -11.4932
 175   2.0000      -0.419226       -11.4077
 176   2.0000      -0.414069       -11.2674
 177   2.0000      -0.409832       -11.1521
 178   2.0000      -0.406301       -11.0560
 179   2.0000      -0.397443       -10.8150
 180   0.0000       0.081892         2.2284
 181   0.0000       0.104704         2.8491
 182   0.0000       0.116314         3.1651
 183   0.0000       0.119504         3.2519
 184   0.0000       0.124897         3.3986

MULLIKEN ATOMIC CHARGES
-----------------------
   0 O :   -0.595490
   1 H :    0.380094
   2 C :   -0.028771
   3 H :    0.064289
   4 H :    0.068792
   5 H :    0.094909
   6 O :   -0.592202
   7 H :    0.365266
   8 C :   -0.073706
   9 H :    0.119257
  10 H :    0.075217
  11 H :    0.109581
  12 O :   -0.604200
  13 H :    0.387109
  14 C :   -0.103653
  15 H :    0.099499
  16 H :    0.100040
  17 H :    0.138729
  18 O :   -0.609523
  19 H :    0.349625
  20 C :   -0.087963
  21 H :    0.129701
  22 H :    0.152118
  23 H :    0.088648
  24 O :   -0.615844
  25 H :    0.387110
  26 C :   -0.089274
  27 H :    0.078838
  28 H :    0.075558
  29 H :    0.130015
  30 O :   -0.570629
  31 H :    0.366899
  32 C :   -0.075935
  33 H :    0.112559
  34 H :    0.119849
  35 H :    0.051909
  36 O :   -0.544129
  37 H :    0.330050
  38 C :   -0.073795
  39 H :    0.080209
  40 H :    0.121497
  41 H :    0.084902
  42 O :   -0.560728
  43 H :    0.358838
  44 C :   -0.055247
  45 H :    0.086566
  46 H :    0.093676
  47 H :    0.071712
  48 O :   -0.546190
  49 H :    0.334210
  50 C :   -0.067212
  51 H :    0.106334
  52 H :    0.052768
  53 H :    0.120089
  54 O :   -0.540151
  55 H :    0.331680
  56 C :   -0.095131
  57 H :    0.123115
  58 H :    0.081645
  59 H :    0.098050
  60 O :   -0.559718
  61 H :    0.348092
  62 C :   -0.020633
  63 H :    0.091733
  64 H :    0.093987
  65 H :    0.044998
  66 O :   -0.571307
  67 H :    0.329366
  68 C :   -0.032101
  69 H :    0.086160
  70 H :    0.085691
  71 H :    0.086004
  72 O :   -0.537057
  73 H :    0.342057
  74 C :   -0.064718
  75 H :    0.097682
  76 H :    0.075508
  77 H :    0.089802
  78 O :   -0.522782
  79 H :    0.328426
  80 C :   -0.077676
  81 H :    0.109562
  82 H :    0.071447
  83 H :    0.091570
  84 O :   -0.557441
  85 H :    0.331794
  86 C :   -0.071019
  87 H :    0.107120
  88 H :    0.091343
  89 H :    0.106516
  90 O :   -0.535847
  91 H :    0.338654
  92 C :   -0.097939
  93 H :    0.089827
  94 H :    0.099758
  95 H :    0.113825
  96 O :   -0.610539
  97 H :    0.397495
  98 C :   -0.085058
  99 H :    0.110593
 100 H :    0.111249
 101 H :    0.090793
 102 O :   -0.538835
 103 H :    0.331558
 104 C :   -0.065826
 105 H :    0.078506
 106 H :    0.107753
 107 H :    0.090086
 108 O :   -0.563805
 109 H :    0.315692
 110 C :   -0.069922
 111 H :    0.108672
 112 H :    0.125186
 113 H :    0.073417
 114 O :   -0.542064
 115 H :    0.322044
 116 C :   -0.078487
 117 H :    0.111424
 118 H :    0.101621
 119 H :    0.084580
Sum of atomic charges:   -0.0000000

LOEWDIN ATOMIC CHARGES
----------------------
   0 O :   -0.065538
   1 H :    0.218835
   2 C :   -0.422086
   3 H :    0.085128
   4 H :    0.087064
   5 H :    0.098079
   6 O :   -0.129050
   7 H :    0.208363
   8 C :   -0.353282
   9 H :    0.092002
  10 H :    0.085836
  11 H :    0.087300
  12 O :   -0.138457
  13 H :    0.213241
  14 C :   -0.345903
  15 H :    0.093773
  16 H :    0.100650
  17 H :    0.094141
  18 O :   -0.119641
  19 H :    0.195664
  20 C :   -0.341384
  21 H :    0.098674
  22 H :    0.087760
  23 H :    0.090789
  24 O :   -0.149615
  25 H :    0.131522
  26 C :   -0.356775
  27 H :    0.091918
  28 H :    0.088953
  29 H :    0.103013
  30 O :   -0.088780
  31 H :    0.178875
  32 C :   -0.351582
  33 H :    0.105596
  34 H :    0.095349
  35 H :    0.098105
  36 O :   -0.085230
  37 H :    0.174616
  38 C :   -0.366365
  39 H :    0.094138
  40 H :    0.083655
  41 H :    0.085174
  42 O :   -0.107304
  43 H :    0.190640
  44 C :   -0.356289
  45 H :    0.083991
  46 H :    0.093283
  47 H :    0.086371
  48 O :   -0.061420
  49 H :    0.203347
  50 C :   -0.421755
  51 H :    0.100937
  52 H :    0.083057
  53 H :    0.090765
  54 O :   -0.122588
  55 H :    0.179156
  56 C :   -0.351074
  57 H :    0.110488
  58 H :    0.082719
  59 H :    0.098846
  60 O :   -0.091094
  61 H :    0.190969
  62 C :   -0.375931
  63 H :    0.097628
  64 H :    0.096005
  65 H :    0.072361
  66 O :   -0.121785
  67 H :    0.169781
  68 C :   -0.348243
  69 H :    0.106541
  70 H :    0.082552
  71 H :    0.084915
  72 O :   -0.061274
  73 H :    0.175169
  74 C :   -0.366173
  75 H :    0.098681
  76 H :    0.078543
  77 H :    0.092028
  78 O :   -0.051384
  79 H :    0.188664
  80 C :   -0.401662
  81 H :    0.100903
  82 H :    0.088227
  83 H :    0.087992
  84 O :   -0.078256
  85 H :    0.157502
  86 C :   -0.341187
  87 H :    0.099894
  88 H :    0.089248
  89 H :    0.085972
  90 O :   -0.132673
  91 H :    0.159489
  92 C :   -0.289569
  93 H :    0.090942
  94 H :    0.089102
  95 H :    0.096190
  96 O :   -0.102899
  97 H :    0.201786
  98 C :   -0.327694
  99 H :    0.093724
 100 H :    0.095594
 101 H :    0.094482
 102 O :   -0.067506
 103 H :    0.162586
 104 C :   -0.342557
 105 H :    0.087102
 106 H :    0.084237
 107 H :    0.100241
 108 O :   -0.124566
 109 H :    0.161800
 110 C :   -0.333275
 111 H :    0.101139
 112 H :    0.091332
 113 H :    0.066083
 114 O :   -0.133728
 115 H :    0.165935
 116 C :   -0.301065
 117 H :    0.092063
 118 H :    0.086380
 119 H :    0.091043

  Mayer bond orders larger than 0.100000
B(  0-O ,  1-H ) :   0.8254 B(  0-O ,  2-C ) :   0.9341 B(  2-C ,  3-H ) :   0.9855
B(  2-C ,  4-H ) :   0.9951 B(  2-C ,  5-H ) :   0.9989 B(  6-O ,  7-H ) :   0.8580
B(  6-O ,  8-C ) :   0.8745 B(  8-C ,  9-H ) :   0.9815 B(  8-C , 10-H ) :   1.0052
B(  8-C , 11-H ) :   0.9956 B( 12-O , 13-H ) :   0.8392 B( 12-O , 14-C ) :   0.9017
B( 14-C , 15-H ) :   0.9817 B( 14-C , 16-H ) :   0.9879 B( 14-C , 17-H ) :   0.9903
B( 18-O , 19-H ) :   0.8679 B( 18-O , 20-C ) :   0.8378 B( 20-C , 21-H ) :   0.9868
B( 20-C , 22-H ) :   0.9782 B( 20-C , 23-H ) :   0.9983 B( 24-O , 25-H ) :   0.8216
B( 24-O , 26-C ) :   0.9054 B( 26-C , 27-H ) :   0.9920 B( 26-C , 28-H ) :   0.9852
B( 26-C , 29-H ) :   0.9831 B( 30-O , 31-H ) :   0.8597 B( 30-O , 32-C ) :   0.8982
B( 32-C , 33-H ) :   0.9897 B( 32-C , 34-H ) :   0.9854 B( 32-C , 35-H ) :   0.9964
B( 36-O , 37-H ) :   0.8942 B( 36-O , 38-C ) :   0.9218 B( 38-C , 39-H ) :   0.9816
B( 38-C , 40-H ) :   0.9862 B( 38-C , 41-H ) :   1.0025 B( 42-O , 43-H ) :   0.8563
B( 42-O , 44-C ) :   0.9412 B( 44-C , 45-H ) :   0.9875 B( 44-C , 46-H ) :   0.9909
B( 44-C , 47-H ) :   1.0025 B( 48-O , 49-H ) :   0.8917 B( 48-O , 50-C ) :   0.8964
B( 50-C , 51-H ) :   0.9806 B( 50-C , 52-H ) :   1.0131 B( 50-C , 53-H ) :   0.9888
B( 54-O , 55-H ) :   0.8874 B( 54-O , 56-C ) :   0.9380 B( 56-C , 57-H ) :   0.9803
B( 56-C , 58-H ) :   0.9921 B( 56-C , 59-H ) :   0.9844 B( 60-O , 61-H ) :   0.8711
B( 60-O , 62-C ) :   0.9298 B( 62-C , 63-H ) :   0.9844 B( 62-C , 64-H ) :   0.9975
B( 62-C , 65-H ) :   0.9842 B( 66-O , 67-H ) :   0.8751 B( 66-O , 68-C ) :   0.9314
B( 68-C , 69-H ) :   0.9884 B( 68-C , 70-H ) :   0.9777 B( 68-C , 71-H ) :   0.9902
B( 72-O , 73-H ) :   0.8807 B( 72-O , 74-C ) :   0.9353 B( 74-C , 75-H ) :   0.9905
B( 74-C , 76-H ) :   0.9947 B( 74-C , 77-H ) :   0.9924 B( 78-O , 79-H ) :   0.8885
B( 78-O , 80-C ) :   0.9256 B( 80-C , 81-H ) :   0.9904 B( 80-C , 82-H ) :   0.9985
B( 80-C , 83-H ) :   0.9891 B( 84-O , 85-H ) :   0.8921 B( 84-O , 86-C ) :   0.9183
B( 86-C , 87-H ) :   0.9868 B( 86-C , 88-H ) :   1.0011 B( 86-C , 89-H ) :   0.9891
B( 90-O , 91-H ) :   0.8898 B( 90-O , 92-C ) :   0.9481 B( 92-C , 93-H ) :   0.9860
B( 92-C , 94-H ) :   0.9890 B( 92-C , 95-H ) :   0.9910 B( 96-O , 97-H ) :   0.8119
B( 96-O , 98-C ) :   0.9056 B( 98-C , 99-H ) :   0.9869 B( 98-C ,100-H ) :   0.9938
B( 98-C ,101-H ) :   0.9859 B(102-O ,103-H ) :   0.8921 B(102-O ,104-C ) :   0.9353
B(104-C ,105-H ) :   0.9814 B(104-C ,106-H ) :   0.9916 B(104-C ,107-H ) :   1.0051
B(108-O ,109-H ) :   0.9011 B(108-O ,110-C ) :   0.8989 B(110-C ,111-H ) :   0.9812
B(110-C ,112-H ) :   0.9994 B(110-C ,113-H ) :   0.9947 B(114-O ,115-H ) :   0.8987
B(114-O ,116-C ) :   0.9354 B(116-C ,117-H ) :   0.9871 B(116-C ,118-H ) :   0.9833
B(116-C ,119-H ) :   0.9945

MP2 TOTAL ENERGY:    -2310.107715368 Eh
FINAL SINGLE POINT ENERGY     -2310.107715368017

DIPOLE MOMENT
-------------
                                X             Y             Z
Electronic contribution:     -4.95695       6.62017      -1.95585
Nuclear contribution   :      7.70909      -9.29002       3.86164
                        -----------------------------------------
Total Dipole Moment    :      2.75214      -2.66985       1.90579
                        -----------------------------------------
Magnitude (a.u.)       :      4.28187
Magnitude (Debye)      :     10.88365

Rotational constants in cm-1:     0.001765     0.001256     0.001137
Rotational constants in MHz :    52.906528    37.644728    34.073968

                             ****ORCA TERMINATED NORMALLY****
TOTAL RUN TIME: 0 days 0 hours 18 minutes 53 seconds 764 msec
