                         Program Version 4.2.0 -  RELEASE  -
|  1> ! RI-MP2 def2-TZVP def2-TZVP/C TightSCF FrozenCore
|  2>
|  3> %pal nprocs 24 end
|  4> %maxcore 8000
|  5> %scf ConvForced true end
|  6>
|  7> *xyz  0  1
|  8> O     0.00000     0.00000     0.00000
|  9> H    -0.92340     0.36802    -0.03410
| 10> C    -0.00910    -1.22295     0.80545
| 11> H     0.71437    -1.93857     0.42668
| 12> H    -0.95375    -1.65957     0.70552
| 13> H     0.10144    -0.94047     1.78688
| 14> O    -2.47976     1.59256    -0.50350
| 15> H    -2.85007     1.51381    -1.41053
| 16> C    -2.27835     2.95621    -0.28364
| 17> H    -1.26315     3.06556     0.09519
| 18> H    -2.91987     3.27961     0.50489
| 19> H    -2.46936     3.63803    -1.17117
| 20> O     3.57721     1.41120    -0.00974
| 21> H     3.52240     2.32355    -0.30472
| 22> C     2.93261     1.26950     1.23530
| 23> H     2.90524     0.27627     1.49151
| 24> H     1.89840     1.59963     1.17248
| 25> H     3.48585     1.76996     2.02795
| 26> O     4.11498    -0.72771    -1.20887
| 27> H     4.15906     0.13327    -0.80981
| 28> C     4.54367    -1.68454    -0.21445
| 29> H     4.68743    -2.65208    -0.77260
| 30> H     3.83251    -1.77111     0.58213
| 31> H     5.44278    -1.32874     0.20794
| 32> O     1.17707    -1.95393    -3.99267
| 33> H     1.25914    -1.02366    -4.27401
| 34> C     0.82914    -1.93661    -2.69079
| 35> H     0.68055    -2.92313    -2.34558
| 36> H    -0.15618    -1.57971    -2.43332
| 37> H     1.59742    -1.44539    -2.06759
| 38> O     1.30004     3.52731    -2.66166
| 39> H     0.48479     4.05562    -2.70124
| 40> C     0.84889     2.29546    -1.96977
| 41> H     1.47596     1.41474    -2.33135
| 42> H    -0.21972     2.02477    -2.19752
| 43> H     0.94273     2.34978    -0.82318
| 44> O    -0.81265    -3.21447     3.26849
| 45> H    -0.26438    -2.73710     3.86297
| 46> C    -2.16342    -3.06724     3.72919
| 47> H    -2.77357    -3.77319     3.16591
| 48> H    -2.56293    -2.04152     3.49010
| 49> H    -2.22280    -3.22058     4.83347
| 50> O    -4.55299     0.52183     1.77866
| 51> H    -5.09914     1.30683     1.69298
| 52> C    -4.87106    -0.44777     0.76806
| 53> H    -5.08683    -1.40695     1.30932
| 54> H    -3.99348    -0.58150     0.05676
| 55> H    -5.73913    -0.14625     0.21516
| 56> O    -0.79540    -0.53366     4.83053
| 57> H     0.13336    -0.60731     5.10276
| 58> C    -0.87230     0.57879     4.02403
| 59> H    -1.96554     0.97697     4.00653
| 60> H    -0.58332     0.29012     3.02657
| 61> H    -0.24217     1.33503     4.42466
| 62> O    -3.91999     1.57330    -2.81212
| 63> H    -4.29793     2.34496    -3.29730
| 64> C    -4.71514     0.40438    -2.68792
| 65> H    -4.70513     0.16412    -1.62700
| 66> H    -4.32474    -0.40623    -3.26470
| 67> H    -5.76801     0.59040    -3.06935
| 68> O    -0.54060    -5.12842    -1.48998
| 69> H    -0.66979    -5.80560    -2.18527
| 70> C    -1.52945    -4.21208    -1.69126
| 71> H    -1.42889    -3.53951    -0.83823
| 72> H    -2.51441    -4.69987    -1.73655
| 73> H    -1.30124    -3.69102    -2.61339
| 74> O     2.26039    -1.47475     4.95600
| 75> H     3.05098    -1.05381     5.29103
| 76> C     2.73297    -2.52335     4.14088
| 77> H     2.05359    -2.64399     3.24700
| 78> H     2.69424    -3.42331     4.65110
| 79> H     3.77026    -2.27344     3.80986
| 80> O     1.14229    -5.61741     0.83548
| 81> H     0.61245    -5.32757     0.02652
| 82> C     1.38618    -7.02899     0.90045
| 83> H     2.34714    -7.22823     1.33384
| 84> H     1.35168    -7.48860    -0.08077
| 85> H     0.63803    -7.51101     1.50264
| 86> O     5.36956    -0.33472     2.66391
| 87> H     6.09419    -0.04009     2.02242
| 88> C     5.47274     0.43454     3.81265
| 89> H     5.28097    -0.13930     4.69354
| 90> H     4.68606     1.17368     3.76824
| 91> H     6.49040     0.90171     3.87937
| 92> O     0.31555     2.49017    -5.75296
| 93> H     0.93428     3.14001    -5.25090
| 94> C    -0.68820     2.12688    -4.87349
| 95> H    -1.63782     2.01947    -5.36640
| 96> H    -0.79728     2.86040    -4.05818
| 97> H    -0.45948     1.14331    -4.44965
| 98> O     5.26544     2.66494    -3.00285
| 99> H     4.71050     2.53502    -3.76970
|100> C     4.84820     3.80762    -2.36403
|101> H     4.97840     3.67453    -1.30397
|102> H     3.80599     3.93963    -2.48446
|103> H     5.46050     4.68810    -2.70042
|104> O     0.28228     5.76137     3.30314
|105> H     0.00617     6.50308     2.65073
|106> C     0.56879     4.55236     2.50551
|107> H     0.77897     3.79415     3.23925
|108> H     1.45381     4.81796     1.98070
|109> H    -0.24375     4.28241     1.73822
|110> O     4.23395     1.41788    -5.26071
|111> H     3.51186     1.39068    -5.89444
|112> C     4.04979     0.35976    -4.34983
|113> H     4.77924     0.51422    -3.57089
|114> H     4.20369    -0.57623    -4.81044
|115> H     3.09310     0.40974    -3.94331
|116> O    -6.10886     2.95696     1.46304
|117> H    -6.86795     2.48521     1.42713
|118> C    -6.16714     4.11590     0.52390
|119> H    -5.38834     4.05314    -0.25978
|120> H    -6.04794     5.07249     1.09299
|121> H    -7.14745     4.10872    -0.03653
|122> O    -2.98030     4.73308     4.53953
|123> H    -3.30110     4.02955     5.12263
|124> C    -3.64120     4.43000     3.29781
|125> H    -3.10094     4.98003     2.45703
|126> H    -4.65417     4.75756     3.36448
|127> H    -3.63074     3.32548     3.12808
|128> *
|129>
|130>                          ****END OF INPUT****

CARTESIAN COORDINATES (ANGSTROEM)
---------------------------------
  O      0.000000    0.000000    0.000000
  H     -0.923400    0.368020   -0.034100
  C     -0.009100   -1.222950    0.805450
  H      0.714370   -1.938570    0.426680
  H     -0.953750   -1.659570    0.705520
  H      0.101440   -0.940470    1.786880
  O     -2.479760    1.592560   -0.503500
  H     -2.850070    1.513810   -1.410530
  C     -2.278350    2.956210   -0.283640
  H     -1.263150    3.065560    0.095190
  H     -2.919870    3.279610    0.504890
  H     -2.469360    3.638030   -1.171170
  O      3.577210    1.411200   -0.009740
  H      3.522400    2.323550   -0.304720
  C      2.932610    1.269500    1.235300
  H      2.905240    0.276270    1.491510
  H      1.898400    1.599630    1.172480
  H      3.485850    1.769960    2.027950
  O      4.114980   -0.727710   -1.208870
  H      4.159060    0.133270   -0.809810
  C      4.543670   -1.684540   -0.214450
  H      4.687430   -2.652080   -0.772600
  H      3.832510   -1.771110    0.582130
  H      5.442780   -1.328740    0.207940
  O      1.177070   -1.953930   -3.992670
  H      1.259140   -1.023660   -4.274010
  C      0.829140   -1.936610   -2.690790
  H      0.680550   -2.923130   -2.345580
  H     -0.156180   -1.579710   -2.433320
  H      1.597420   -1.445390   -2.067590
  O      1.300040    3.527310   -2.661660
  H      0.484790    4.055620   -2.701240
  C      0.848890    2.295460   -1.969770
  H      1.475960    1.414740   -2.331350
  H     -0.219720    2.024770   -2.197520
  H      0.942730    2.349780   -0.823180
  O     -0.812650   -3.214470    3.268490
  H     -0.264380   -2.737100    3.862970
  C     -2.163420   -3.067240    3.729190
  H     -2.773570   -3.773190    3.165910
  H     -2.562930   -2.041520    3.490100
  H     -2.222800   -3.220580    4.833470
  O     -4.552990    0.521830    1.778660
  H     -5.099140    1.306830    1.692980
  C     -4.871060   -0.447770    0.768060
  H     -5.086830   -1.406950    1.309320
  H     -3.993480   -0.581500    0.056760
  H     -5.739130   -0.146250    0.215160
  O     -0.795400   -0.533660    4.830530
  H      0.133360   -0.607310    5.102760
  C     -0.872300    0.578790    4.024030
  H     -1.965540    0.976970    4.006530
  H     -0.583320    0.290120    3.026570
  H     -0.242170    1.335030    4.424660
  O     -3.919990    1.573300   -2.812120
  H     -4.297930    2.344960   -3.297300
  C     -4.715140    0.404380   -2.687920
  H     -4.705130    0.164120   -1.627000
  H     -4.324740   -0.406230   -3.264700
  H     -5.768010    0.590400   -3.069350
  O     -0.540600   -5.128420   -1.489980
  H     -0.669790   -5.805600   -2.185270
  C     -1.529450   -4.212080   -1.691260
  H     -1.428890   -3.539510   -0.838230
  H     -2.514410   -4.699870   -1.736550
  H     -1.301240   -3.691020   -2.613390
  O      2.260390   -1.474750    4.956000
  H      3.050980   -1.053810    5.291030
  C      2.732970   -2.523350    4.140880
  H      2.053590   -2.643990    3.247000
  H      2.694240   -3.423310    4.651100
  H      3.770260   -2.273440    3.809860
  O      1.142290   -5.617410    0.835480
  H      0.612450   -5.327570    0.026520
  C      1.386180   -7.028990    0.900450
  H      2.347140   -7.228230    1.333840
  H      1.351680   -7.488600   -0.080770
  H      0.638030   -7.511010    1.502640
  O      5.369560   -0.334720    2.663910
  H      6.094190   -0.040090    2.022420
  C      5.472740    0.434540    3.812650
  H      5.280970   -0.139300    4.693540
  H      4.686060    1.173680    3.768240
  H      6.490400    0.901710    3.879370
  O      0.315550    2.490170   -5.752960
  H      0.934280    3.140010   -5.250900
  C     -0.688200    2.126880   -4.873490
  H     -1.637820    2.019470   -5.366400
  H     -0.797280    2.860400   -4.058180
  H     -0.459480    1.143310   -4.449650
  O      5.265440    2.664940   -3.002850
  H      4.710500    2.535020   -3.769700
  C      4.848200    3.807620   -2.364030
  H      4.978400    3.674530   -1.303970
  H      3.805990    3.939630   -2.484460
  H      5.460500    4.688100   -2.700420
  O      0.282280    5.761370    3.303140
  H      0.006170    6.503080    2.650730
  C      0.568790    4.552360    2.505510
  H      0.778970    3.794150    3.239250
  H      1.453810    4.817960    1.980700
  H     -0.243750    4.282410    1.738220
  O      4.233950    1.417880   -5.260710
  H      3.511860    1.390680   -5.894440
  C      4.049790    0.359760   -4.349830
  H      4.779240    0.514220   -3.570890
  H      4.203690   -0.576230   -4.810440
  H      3.093100    0.409740   -3.943310
  O     -6.108860    2.956960    1.463040
  H     -6.867950    2.485210    1.427130
  C     -6.167140    4.115900    0.523900
  H     -5.388340    4.053140   -0.259780
  H     -6.047940    5.072490    1.092990
  H     -7.147450    4.108720   -0.036530
  O     -2.980300    4.733080    4.539530
  H     -3.301100    4.029550    5.122630
  C     -3.641200    4.430000    3.297810
  H     -3.100940    4.980030    2.457030
  H     -4.654170    4.757560    3.364480
  H     -3.630740    3.325480    3.128080

 Total Charge           Charge          ....    0
 Multiplicity           Mult            ....    1
 Number of Electrons    NEL             ....  360
 Basis Dimension        Dim             .... 1720

ORBITAL ENERGIES
----------------

  NO   OCC          E(Eh)            E(eV)
   0   2.0000     -20.603119      -560.6394
   1   2.0000     -20.589457      -560.2676
   2   2.0000     -20.576293      -559.9094
   3   2.0000     -20.569358      -559.7207
   4   2.0000     -20.565199      -559.6075
   5   2.0000     -20.562948      -559.5463
   6   2.0000     -20.561188      -559.4984
   7   2.0000     -20.558273      -559.4191
   8   2.0000     -20.555218      -559.3359
   9   2.0000     -20.551453      -559.2335
  10   2.0000     -20.545013      -559.0582
  11   2.0000     -20.542825      -558.9987
  12   2.0000     -20.537681      -558.8587
  13   2.0000     -20.535735      -558.8057
  14   2.0000     -20.533773      -558.7524
  15   2.0000     -20.520684      -558.3962
  16   2.0000     -20.519800      -558.3721
  17   2.0000     -20.514924      -558.2395
  18   2.0000     -20.507316      -558.0324
  19   2.0000     -20.487146      -557.4836
  20   2.0000     -11.322901      -308.1118
  21   2.0000     -11.306122      -307.6552
  22   2.0000     -11.286152      -307.1118
  23   2.0000     -11.278223      -306.8961
  24   2.0000     -11.277259      -306.8698
  25   2.0000     -11.277196      -306.8681
  26   2.0000     -11.274028      -306.7819
  27   2.0000     -11.272182      -306.7317
  28   2.0000     -11.269939      -306.6706
  29   2.0000     -11.268353      -306.6275
  30   2.0000     -11.259395      -306.3837
  31   2.0000     -11.251442      -306.1673
  32   2.0000     -11.250392      -306.1387
  33   2.0000     -11.246673      -306.0375
  34   2.0000     -11.240179      -305.8608
  35   2.0000     -11.236933      -305.7725
  36   2.0000     -11.230343      -305.5932
  37   2.0000     -11.228256      -305.5364
  38   2.0000     -11.226310      -305.4834
  39   2.0000     -11.223808      -305.4153
  40   2.0000      -1.399795       -38.0904
  41   2.0000      -1.393234       -37.9118
  42   2.0000      -1.391991       -37.8780
  43   2.0000      -1.370191       -37.2848
  44   2.0000      -1.369791       -37.2739
  45   2.0000      -1.367050       -37.1993
  46   2.0000      -1.365404       -37.1545
  47   2.0000      -1.360705       -37.0267
  48   2.0000      -1.359968       -37.0066
  49   2.0000      -1.354525       -36.8585
  50   2.0000      -1.354209       -36.8499
  51   2.0000      -1.352561       -36.8050
  52   2.0000      -1.340509       -36.4771
  53   2.0000      -1.338985       -36.4356
  54   2.0000      -1.334843       -36.3229
  55   2.0000      -1.323870       -36.0243
  56   2.0000      -1.316671       -35.8284
  57   2.0000      -1.303794       -35.4780
  58   2.0000      -1.293791       -35.2058
  59   2.0000      -1.292352       -35.1667
  60   2.0000      -0.965383       -26.2694
  61   2.0000      -0.962273       -26.1848
  62   2.0000      -0.932865       -25.3845
  63   2.0000      -0.932210       -25.3667
  64   2.0000      -0.930873       -25.3303
  65   2.0000      -0.927869       -25.2486
  66   2.0000      -0.925940       -25.1961
  67   2.0000      -0.917809       -24.9749
  68   2.0000      -0.917652       -24.9706
  69   2.0000      -0.916413       -24.9369
  70   2.0000      -0.913372       -24.8541
  71   2.0000      -0.911482       -24.8027
  72   2.0000      -0.908653       -24.7257
  73   2.0000      -0.905376       -24.6365
  74   2.0000      -0.901308       -24.5258
  75   2.0000      -0.899486       -24.4763
  76   2.0000      -0.898208       -24.4415
  77   2.0000      -0.896659       -24.3993
  78   2.0000      -0.888859       -24.1871
  79   2.0000      -0.884807       -24.0768
  80   2.0000      -0.743124       -20.2214
  81   2.0000      -0.727397       -19.7935
  82   2.0000      -0.716584       -19.4992
  83   2.0000      -0.710679       -19.3385
  84   2.0000      -0.703256       -19.1366
  85   2.0000      -0.700854       -19.0712
  86   2.0000      -0.700788       -19.0694
  87   2.0000      -0.697539       -18.9810
  88   2.0000      -0.692651       -18.8480
  89   2.0000      -0.690369       -18.7859
  90   2.0000      -0.682128       -18.5616
  91   2.0000      -0.680370       -18.5138
  92   2.0000      -0.678562       -18.4646
  93   2.0000      -0.673303       -18.3215
  94   2.0000      -0.663792       -18.0627
  95   2.0000      -0.662749       -18.0343
  96   2.0000      -0.662531       -18.0284
  97   2.0000      -0.660296       -17.9676
  98   2.0000      -0.656393       -17.8614
  99   2.0000      -0.655119       -17.8267
 100   2.0000      -0.651751       -17.7350
 101   2.0000      -0.647485       -17.6190
 102   2.0000      -0.643774       -17.5180
 103   2.0000      -0.642656       -17.4876
 104   2.0000      -0.638226       -17.3670
 105   2.0000      -0.630826       -17.1657
 106   2.0000      -0.629731       -17.1358
 107   2.0000      -0.628607       -17.1053
 108   2.0000      -0.627803       -17.0834
 109   2.0000      -0.621829       -16.9208
 110   2.0000      -0.619937       -16.8694
 111   2.0000      -0.615626       -16.7520
 112   2.0000      -0.614773       -16.7288
 113   2.0000      -0.614029       -16.7086
 114   2.0000      -0.612102       -16.6561
 115   2.0000      -0.610868       -16.6226
 116   2.0000      -0.608932       -16.5699
 117   2.0000      -0.605624       -16.4799
 118   2.0000      -0.604563       -16.4510
 119   2.0000      -0.603904       -16.4331
 120   2.0000      -0.598640       -16.2898
 121   2.0000      -0.597489       -16.2585
 122   2.0000      -0.596579       -16.2338
 123   2.0000      -0.595426       -16.2024
 124   2.0000      -0.593819       -16.1586
 125   2.0000      -0.587870       -15.9968
 126   2.0000      -0.584578       -15.9072
 127   2.0000      -0.583692       -15.8831
 128   2.0000      -0.582510       -15.8509
 129   2.0000      -0.580930       -15.8079
 130   2.0000      -0.579502       -15.7691
 131   2.0000      -0.575850       -15.6697
 132   2.0000      -0.575040       -15.6476
 133   2.0000      -0.573015       -15.5925
 134   2.0000      -0.572040       -15.5660
 135   2.0000      -0.564103       -15.3500
 136   2.0000      -0.561304       -15.2739
 137   2.0000      -0.559379       -15.2215
 138   2.0000      -0.554387       -15.0856
 139   2.0000      -0.542219       -14.7545
 140   2.0000      -0.538028       -14.6405
 141   2.0000      -0.536748       -14.6057
 142   2.0000      -0.513106       -13.9623
 143   2.0000      -0.511914       -13.9299
 144   2.0000      -0.510870       -13.9015
 145   2.0000      -0.508294       -13.8314
 146   2.0000      -0.505382       -13.7522
 147   2.0000      -0.503565       -13.7027
 148   2.0000      -0.500273       -13.6131
 149   2.0000      -0.497322       -13.5328
 150   2.0000      -0.496455       -13.5092
 151   2.0000      -0.495877       -13.4935
 152   2.0000      -0.494101       -13.4452
 153   2.0000      -0.492066       -13.3898
 154   2.0000      -0.485308       -13.2059
 155   2.0000      -0.478300       -13.0152
 156   2.0000      -0.474323       -12.9070
 157   2.0000      -0.472084       -12.8461
 158   2.0000      -0.468862       -12.7584
 159   2.0000      -0.464723       -12.6457
 160   2.0000      -0.459224       -12.4961
 161   2.0000      -0.459072       -12.4920
 162   2.0000      -0.456953       -12.4343
 163   2.0000      -0.452439       -12.3115
 164   2.0000      -0.451933       -12.2977
 165   2.0000      -0.451548       -12.2872
 166   2.0000      -0.449737       -12.2380
 167   2.0000      -0.449241       -12.2245
 168   2.0000      -0.445203       -12.1146
 169   2.0000      -0.444209       -12.0875
 170   2.0000      -0.439192       -11.9510
 171   2.0000      -0.438295       -11.9266
 172   2.0000      -0.434999       -11.8369
 173   2.0000      -0.431604       -11.7445
 174   2.0000      -0.424217       -11.5435
 175   2.0000      -0.418022       -11.3750
 176   2.0000      -0.414811       -11.2876
 177   2.0000      -0.414151       -11.2696
 178   2.0000      -0.408773       -11.1233
 179   2.0000      -0.398307       -10.8385
 180   0.0000       0.078305         2.1308
 181   0.0000       0.102248         2.7823
 182   0.0000       0.107541         2.9263
 183   0.0000       0.113318         3.0835
 184   0.0000       0.115379         3.1396

MULLIKEN ATOMIC CHARGES
-----------------------
   0 O :   -0.608171
   1 H :    0.365060
   2 C :   -0.055360
   3 H :    0.126953
   4 H :    0.097493
   5 H :    0.076112
   6 O :   -0.601739
   7 H :    0.404682
   8 C :   -0.073048
   9 H :    0.093247
  10 H :    0.098445
  11 H :    0.077420
  12 O :   -0.579286
  13 H :    0.332301
  14 C :   -0.051091
  15 H :    0.126536
  16 H :    0.113647
  17 H :    0.079365
  18 O :   -0.591516
  19 H :    0.381705
  20 C :   -0.038535
  21 H :    0.104567
  22 H :    0.081762
  23 H :    0.048692
  24 O :   -0.537469
  25 H :    0.326392
  26 C :   -0.096698
  27 H :    0.113277
  28 H :    0.056303
  29 H :    0.143351
  30 O :   -0.561088
  31 H :    0.327196
  32 C :   -0.108718
  33 H :    0.143958
  34 H :    0.093802
  35 H :    0.109958
  36 O :   -0.543921
  37 H :    0.320487
  38 C :   -0.070136
  39 H :    0.096873
  40 H :    0.098808
  41 H :    0.095148
  42 O :   -0.555849
  43 H :    0.351024
  44 C :   -0.049299
  45 H :    0.104442
  46 H :    0.092611
  47 H :    0.071392
  48 O :   -0.575560
  49 H :    0.353477
  50 C :   -0.033789
  51 H :    0.105419
  52 H :    0.053608
  53 H :    0.090951
  54 O :   -0.622475
  55 H :    0.359108
  56 C :   -0.037736
  57 H :    0.063395
  58 H :    0.120275
  59 H :    0.106492
  60 O :   -0.565710
  61 H :    0.338431
  62 C :   -0.088196
  63 H :    0.110653
  64 H :    0.095587
  65 H :    0.112063
  66 O :   -0.576293
  67 H :    0.332932
  68 C :   -0.114130
  69 H :    0.131485
  70 H :    0.109194
  71 H :    0.123709
  72 O :   -0.587549
  73 H :    0.377631
  74 C :   -0.051726
  75 H :    0.093949
  76 H :    0.073900
  77 H :    0.082099
  78 O :   -0.543531
  79 H :    0.351649
  80 C :   -0.073730
  81 H :    0.079871
  82 H :    0.080856
  83 H :    0.107146
  84 O :   -0.566603
  85 H :    0.357454
  86 C :   -0.005163
  87 H :    0.093642
  88 H :    0.034925
  89 H :    0.073188
  90 O :   -0.551305
  91 H :    0.363988
  92 C :   -0.080599
  93 H :    0.061992
  94 H :    0.115324
  95 H :    0.084298
  96 O :   -0.540818
  97 H :    0.318991
  98 C :   -0.068790
  99 H :    0.114832
 100 H :    0.102950
 101 H :    0.071117
 102 O :   -0.580536
 103 H :    0.331025
 104 C :   -0.056780
 105 H :    0.167220
 106 H :    0.099908
 107 H :    0.029054
 108 O :   -0.562913
 109 H :    0.324055
 110 C :   -0.115425
 111 H :    0.109015
 112 H :    0.133806
 113 H :    0.121891
 114 O :   -0.528029
 115 H :    0.324328
 116 C :   -0.082898
 117 H :    0.083636
 118 H :    0.092528
 119 H :    0.116151
Sum of atomic charges:   -0.0000000

LOEWDIN ATOMIC CHARGES
----------------------
   0 O :   -0.158784
   1 H :    0.180620
   2 C :   -0.295762
   3 H :    0.103751
   4 H :    0.083938
   5 H :    0.071448
   6 O :   -0.091504
   7 H :    0.175020
   8 C :   -0.373091
   9 H :    0.090948
  10 H :    0.087271
  11 H :    0.091210
  12 O :   -0.054723
  13 H :    0.171300
  14 C :   -0.324177
  15 H :    0.092009
  16 H :    0.091911
  17 H :    0.087550
  18 O :   -0.126616
  19 H :    0.127069
  20 C :   -0.320401
  21 H :    0.105458
  22 H :    0.081815
  23 H :    0.072938
  24 O :   -0.050594
  25 H :    0.179239
  26 C :   -0.414139
  27 H :    0.093730
  28 H :    0.078337
  29 H :    0.102995
  30 O :   -0.159956
  31 H :    0.167472
  32 C :   -0.326567
  33 H :    0.114773
  34 H :    0.097852
  35 H :    0.104442
  36 O :   -0.101462
  37 H :    0.146140
  38 C :   -0.333433
  39 H :    0.091411
  40 H :    0.095730
  41 H :    0.094681
  42 O :   -0.121072
  43 H :    0.152622
  44 C :   -0.340407
  45 H :    0.100265
  46 H :    0.095675
  47 H :    0.076676
  48 O :   -0.076056
  49 H :    0.177160
  50 C :   -0.372817
  51 H :    0.111417
  52 H :    0.084802
  53 H :    0.081924
  54 O :   -0.114064
  55 H :    0.191294
  56 C :   -0.322490
  57 H :    0.101252
  58 H :    0.094354
  59 H :    0.103361
  60 O :   -0.068030
  61 H :    0.192382
  62 C :   -0.379711
  63 H :    0.106836
  64 H :    0.089189
  65 H :    0.093132
  66 O :   -0.111678
  67 H :    0.167727
  68 C :   -0.337605
  69 H :    0.111850
  70 H :    0.080205
  71 H :    0.103311
  72 O :   -0.155767
  73 H :    0.192714
  74 C :   -0.326713
  75 H :    0.089807
  76 H :    0.082332
  77 H :    0.082848
  78 O :   -0.097425
  79 H :    0.211184
  80 C :   -0.366111
  81 H :    0.082605
  82 H :    0.083671
  83 H :    0.099754
  84 O :   -0.114235
  85 H :    0.217562
  86 C :   -0.372104
  87 H :    0.088539
  88 H :    0.080914
  89 H :    0.088672
  90 O :   -0.068218
  91 H :    0.170394
  92 C :   -0.381321
  93 H :    0.081197
  94 H :    0.084627
  95 H :    0.092443
  96 O :   -0.174872
  97 H :    0.197056
  98 C :   -0.300556
  99 H :    0.099427
 100 H :    0.083734
 101 H :    0.096055
 102 O :   -0.105220
 103 H :    0.169631
 104 C :   -0.335281
 105 H :    0.112744
 106 H :    0.086473
 107 H :    0.069914
 108 O :   -0.110853
 109 H :    0.117677
 110 C :   -0.278923
 111 H :    0.097543
 112 H :    0.107843
 113 H :    0.103489
 114 O :   -0.123912
 115 H :    0.174882
 116 C :   -0.335132
 117 H :    0.099780
 118 H :    0.081231
 119 H :    0.098547

  Mayer bond orders larger than 0.100000
B(  0-O ,  1-H ) :   0.8550 B(  0-O ,  2-C ) :   0.8970 B(  2-C ,  3-H ) :   0.9916
B(  2-C ,  4-H ) :   0.9938 B(  2-C ,  5-H ) :   0.9937 B(  6-O ,  7-H ) :   0.8198
B(  6-O ,  8-C ) :   0.9114 B(  8-C ,  9-H ) :   0.9961 B(  8-C , 10-H ) :   0.9847
B(  8-C , 11-H ) :   0.9893 B( 12-O , 13-H ) :   0.8800 B( 12-O , 14-C ) :   0.8745
B( 14-C , 15-H ) :   0.9886 B( 14-C , 16-H ) :   0.9848 B( 14-C , 17-H ) :   0.9940
B( 18-O , 19-H ) :   0.8234 B( 18-O , 20-C ) :   0.9456 B( 20-C , 21-H ) :   0.9896
B( 20-C , 22-H ) :   0.9864 B( 20-C , 23-H ) :   0.9968 B( 24-O , 25-H ) :   0.8952
B( 24-O , 26-C ) :   0.9225 B( 26-C , 27-H ) :   0.9849 B( 26-C , 28-H ) :   0.9934
B( 26-C , 29-H ) :   0.9781 B( 30-O , 31-H ) :   0.8974 B( 30-O , 32-C ) :   0.8627
B( 32-C , 33-H ) :   0.9850 B( 32-C , 34-H ) :   0.9794 B( 32-C , 35-H ) :   0.9907
B( 36-O , 37-H ) :   0.8926 B( 36-O , 38-C ) :   0.9251 B( 38-C , 39-H ) :   0.9820
B( 38-C , 40-H ) :   0.9883 B( 38-C , 41-H ) :   0.9918 B( 42-O , 43-H ) :   0.8620
B( 42-O , 44-C ) :   0.9591 B( 44-C , 45-H ) :   0.9854 B( 44-C , 46-H ) :   0.9716
B( 44-C , 47-H ) :   0.9849 B( 48-O , 49-H ) :   0.8655 B( 48-O , 50-C ) :   0.9151
B( 50-C , 51-H ) :   0.9896 B( 50-C , 52-H ) :   0.9908 B( 50-C , 53-H ) :   1.0014
B( 54-O , 55-H ) :   0.8645 B( 54-O , 56-C ) :   0.8666 B( 56-C , 57-H ) :   0.9750
B( 56-C , 58-H ) :   0.9922 B( 56-C , 59-H ) :   0.9929 B( 60-O , 61-H ) :   0.8807
B( 60-O , 62-C ) :   0.8832 B( 62-C , 63-H ) :   0.9899 B( 62-C , 64-H ) :   0.9843
B( 62-C , 65-H ) :   0.9987 B( 66-O , 67-H ) :   0.8929 B( 66-O , 68-C ) :   0.8708
B( 68-C , 69-H ) :   0.9858 B( 68-C , 70-H ) :   0.9920 B( 68-C , 71-H ) :   0.9865
B( 72-O , 73-H ) :   0.8398 B( 72-O , 74-C ) :   0.9527 B( 74-C , 75-H ) :   0.9883
B( 74-C , 76-H ) :   0.9921 B( 74-C , 77-H ) :   0.9897 B( 78-O , 79-H ) :   0.8711
B( 78-O , 80-C ) :   0.9366 B( 80-C , 81-H ) :   0.9901 B( 80-C , 82-H ) :   0.9936
B( 80-C , 83-H ) :   0.9924 B( 84-O , 85-H ) :   0.8616 B( 84-O , 86-C ) :   0.9453
B( 86-C , 87-H ) :   0.9847 B( 86-C , 88-H ) :   0.9990 B( 86-C , 89-H ) :   0.9966
B( 90-O , 91-H ) :   0.8487 B( 90-O , 92-C ) :   0.9551 B( 92-C , 93-H ) :   0.9872
B( 92-C , 94-H ) :   0.9903 B( 92-C , 95-H ) :   0.9903 B( 96-O , 97-H ) :   0.8922
B( 96-O , 98-C ) :   0.9285 B( 98-C , 99-H ) :   0.9807 B( 98-C ,100-H ) :   0.9933
B( 98-C ,101-H ) :   0.9826 B(102-O ,103-H ) :   0.8875 B(102-O ,104-C ) :   0.8652
B(104-C ,105-H ) :   0.9851 B(104-C ,106-H ) :   0.9918 B(104-C ,107-H ) :   0.9913
B(108-O ,109-H ) :   0.9014 B(108-O ,110-C ) :   0.8991 B(110-C ,111-H ) :   0.9814
B(110-C ,112-H ) :   0.9834 B(110-C ,113-H ) :   0.9831 B(114-O ,115-H ) :   0.8959
B(114-O ,116-C ) :   0.9378 B(116-C ,117-H ) :   0.9798 B(116-C ,118-H ) :   0.9822
B(116-C ,119-H ) :   0.9877

MP2 TOTAL ENERGY:    -2310.124656737 Eh
FINAL SINGLE POINT ENERGY     -2310.124656737104

DIPOLE MOMENT
-------------
                                X             Y             Z
Electronic contribution:      7.04293       4.24417      -4.28728
Nuclear contribution   :    -11.68893      -2.61057       3.45987
                        -----------------------------------------
Total Dipole Moment    :     -4.64600       1.63359      -0.82741
                        -----------------------------------------
Magnitude (a.u.)       :      4.99385
Magnitude (Debye)      :     12.69335

Rotational constants in cm-1:     0.001571     0.001376     0.001228
Rotational constants in MHz :    47.092777    41.241838    36.824035

                             ****ORCA TERMINATED NORMALLY****
TOTAL RUN TIME: 0 days 0 hours 19 minutes 47 seconds 93 msec
