                         Program Version 4.2.0 -  RELEASE  -
|  1> ! RI-MP2 def2-TZVP def2-TZVP/C TightSCF FrozenCore
|  2>
|  3> %pal nprocs 24 end
|  4> %maxcore 8000
|  5> %scf ConvForced true end
|  6>
|  7> *xyz  0  1
|  8> O     0.00000     0.00000     0.00000
|  9> H    -0.70026    -0.62915     0.08934
| 10> C     0.87795    -0.23893     1.03079
| 11> H     0.96587     0.71823     1.57400
| 12> H     1.83718    -0.60676     0.66456
| 13> H     0.51217    -0.96426     1.73689
| 14> O    -0.06035     0.56475    -2.81895
| 15> H     0.70797     0.36886    -2.25150
| 16> C     0.06442     0.06828    -4.17230
| 17> H    -0.22157     0.82343    -4.88087
| 18> H    -0.45937    -0.83062    -4.26167
| 19> H     1.08328    -0.05448    -4.38688
| 20> O     2.46367     0.91143    -1.54141
| 21> H     2.59184     1.52422    -0.81681
| 22> C     3.74316     0.71087    -2.12348
| 23> H     3.91345    -0.32039    -2.44765
| 24> H     4.52249     0.93691    -1.41818
| 25> H     3.81779     1.34702    -2.96013
| 26> O    -2.40288    -1.52942     1.20564
| 27> H    -3.30698    -1.72491     1.47573
| 28> C    -1.65305    -2.74377     0.92907
| 29> H    -1.25423    -2.74311    -0.12878
| 30> H    -2.23744    -3.58761     1.18255
| 31> H    -0.82780    -2.71281     1.61620
| 32> O     0.42434     3.18557    -1.22194
| 33> H     0.46382     2.20641    -1.29442
| 34> C    -0.35287     3.63661    -2.29379
| 35> H    -0.16445     4.73324    -2.45022
| 36> H    -1.37221     3.48393    -2.09897
| 37> H    -0.06745     3.07005    -3.21746
| 38> O     1.61028    -3.65187    -0.05200
| 39> H     1.97956    -3.22991     0.72906
| 40> C     2.12687    -5.01135     0.11770
| 41> H     1.85357    -5.60852    -0.72304
| 42> H     1.71363    -5.49896     0.98146
| 43> H     3.18811    -4.94999     0.20772
| 44> O     3.27456     2.30660     0.51753
| 45> H     2.64408     2.79221     1.03863
| 46> C     4.59747     2.71169     0.84951
| 47> H     5.24712     1.84856     0.73763
| 48> H     4.55988     2.92584     1.96368
| 49> H     4.92955     3.53454     0.24336
| 50> O     3.35886    -2.83115     2.12140
| 51> H     4.09135    -2.85273     1.51410
| 52> C     3.64112    -3.74747     3.18137
| 53> H     2.97751    -3.53500     4.06722
| 54> H     4.68658    -3.63510     3.40105
| 55> H     3.43340    -4.74023     2.73836
| 56> O     1.77366     3.75697     2.80020
| 57> H     0.89853     4.09828     2.99334
| 58> C     2.18038     3.06208     3.96642
| 59> H     3.23277     2.89807     3.88316
| 60> H     1.69124     2.09080     4.01213
| 61> H     1.95663     3.60461     4.86012
| 62> O    -1.06780     3.68315     3.32112
| 63> H    -1.59032     3.54886     4.12394
| 64> C    -1.13055     2.51711     2.53616
| 65> H    -0.38158     2.55847     1.77654
| 66> H    -2.14000     2.43249     2.14582
| 67> H    -0.99357     1.63689     3.13392
| 68> O    -5.34865    -0.18487    -1.04645
| 69> H    -5.94109    -0.48059    -1.75193
| 70> C    -4.01671    -0.11340    -1.57191
| 71> H    -3.58784     0.91097    -1.54296
| 72> H    -4.00308    -0.54562    -2.60872
| 73> H    -3.38310    -0.69612    -0.97093
| 74> O    -4.88485     2.45165     0.38867
| 75> H    -5.25571     1.58858     0.05233
| 76> C    -4.83859     2.40755     1.83096
| 77> H    -4.29217     3.26154     2.18968
| 78> H    -4.38912     1.55499     2.16839
| 79> H    -5.80945     2.54295     2.27999
| 80> O     4.55985    -3.57420    -1.04349
| 81> H     3.98028    -3.09771    -1.68522
| 82> C     5.56734    -4.21736    -1.78216
| 83> H     5.57481    -5.26052    -1.50495
| 84> H     6.50686    -3.80251    -1.63918
| 85> H     5.33424    -4.16160    -2.85981
| 86> O    -5.53251    -1.35891     2.24354
| 87> H    -5.06775    -0.88621     2.96671
| 88> C    -6.81166    -0.88483     2.08686
| 89> H    -7.25582    -1.29515     1.18648
| 90> H    -6.76939     0.18756     1.89345
| 91> H    -7.50596    -1.06673     2.97712
| 92> O     0.49110    -3.86406    -4.82053
| 93> H     0.71858    -4.77263    -5.13018
| 94> C     1.27571    -3.67312    -3.66262
| 95> H     0.91973    -2.75942    -3.13880
| 96> H     2.33220    -3.48045    -3.87518
| 97> H     1.19258    -4.53421    -3.01336
| 98> O    -3.23254    -4.38856     3.54974
| 99> H    -2.52221    -4.27823     4.16290
|100> C    -4.45456    -3.80205     4.07156
|101> H    -5.23569    -3.85019     3.29487
|102> H    -4.32213    -2.76367     4.40718
|103> H    -4.79870    -4.40263     4.93148
|104> O     4.39395    -1.42184    -4.58371
|105> H     4.96533    -0.66967    -4.71322
|106> C     4.79628    -2.43774    -5.53720
|107> H     4.05672    -3.20395    -5.61193
|108> H     5.75423    -2.91750    -5.30194
|109> H     4.91111    -2.04224    -6.59227
|110> O     1.48364     2.91588    -5.64069
|111> H     1.66526     2.95710    -6.56610
|112> C     2.70374     3.06249    -4.97228
|113> H     2.47881     2.99289    -3.86750
|114> H     3.14857     3.96453    -5.27959
|115> H     3.32506     2.23489    -5.19224
|116> O    -0.10263    -1.82536     6.26336
|117> H    -0.79842    -1.24448     6.53210
|118> C     1.05975    -1.06818     6.12096
|119> H     1.90808    -1.70204     6.13543
|120> H     1.10695    -0.38772     6.92973
|121> H     0.97811    -0.53493     5.19361
|122> O     2.65820     6.27521     0.22395
|123> H     2.60320     5.67178     0.97515
|124> C     2.95969     5.57264    -1.05781
|125> H     3.45886     6.23779    -1.72474
|126> H     2.04146     5.23085    -1.57475
|127> H     3.55468     4.68447    -0.84680
|128> *
|129>
|130>                          ****END OF INPUT****

CARTESIAN COORDINATES (ANGSTROEM)
---------------------------------
  O      0.000000    0.000000    0.000000
  H     -0.700260   -0.629150    0.089340
  C      0.877950   -0.238930    1.030790
  H      0.965870    0.718230    1.574000
  H      1.837180   -0.606760    0.664560
  H      0.512170   -0.964260    1.736890
  O     -0.060350    0.564750   -2.818950
  H      0.707970    0.368860   -2.251500
  C      0.064420    0.068280   -4.172300
  H     -0.221570    0.823430   -4.880870
  H     -0.459370   -0.830620   -4.261670
  H      1.083280   -0.054480   -4.386880
  O      2.463670    0.911430   -1.541410
  H      2.591840    1.524220   -0.816810
  C      3.743160    0.710870   -2.123480
  H      3.913450   -0.320390   -2.447650
  H      4.522490    0.936910   -1.418180
  H      3.817790    1.347020   -2.960130
  O     -2.402880   -1.529420    1.205640
  H     -3.306980   -1.724910    1.475730
  C     -1.653050   -2.743770    0.929070
  H     -1.254230   -2.743110   -0.128780
  H     -2.237440   -3.587610    1.182550
  H     -0.827800   -2.712810    1.616200
  O      0.424340    3.185570   -1.221940
  H      0.463820    2.206410   -1.294420
  C     -0.352870    3.636610   -2.293790
  H     -0.164450    4.733240   -2.450220
  H     -1.372210    3.483930   -2.098970
  H     -0.067450    3.070050   -3.217460
  O      1.610280   -3.651870   -0.052000
  H      1.979560   -3.229910    0.729060
  C      2.126870   -5.011350    0.117700
  H      1.853570   -5.608520   -0.723040
  H      1.713630   -5.498960    0.981460
  H      3.188110   -4.949990    0.207720
  O      3.274560    2.306600    0.517530
  H      2.644080    2.792210    1.038630
  C      4.597470    2.711690    0.849510
  H      5.247120    1.848560    0.737630
  H      4.559880    2.925840    1.963680
  H      4.929550    3.534540    0.243360
  O      3.358860   -2.831150    2.121400
  H      4.091350   -2.852730    1.514100
  C      3.641120   -3.747470    3.181370
  H      2.977510   -3.535000    4.067220
  H      4.686580   -3.635100    3.401050
  H      3.433400   -4.740230    2.738360
  O      1.773660    3.756970    2.800200
  H      0.898530    4.098280    2.993340
  C      2.180380    3.062080    3.966420
  H      3.232770    2.898070    3.883160
  H      1.691240    2.090800    4.012130
  H      1.956630    3.604610    4.860120
  O     -1.067800    3.683150    3.321120
  H     -1.590320    3.548860    4.123940
  C     -1.130550    2.517110    2.536160
  H     -0.381580    2.558470    1.776540
  H     -2.140000    2.432490    2.145820
  H     -0.993570    1.636890    3.133920
  O     -5.348650   -0.184870   -1.046450
  H     -5.941090   -0.480590   -1.751930
  C     -4.016710   -0.113400   -1.571910
  H     -3.587840    0.910970   -1.542960
  H     -4.003080   -0.545620   -2.608720
  H     -3.383100   -0.696120   -0.970930
  O     -4.884850    2.451650    0.388670
  H     -5.255710    1.588580    0.052330
  C     -4.838590    2.407550    1.830960
  H     -4.292170    3.261540    2.189680
  H     -4.389120    1.554990    2.168390
  H     -5.809450    2.542950    2.279990
  O      4.559850   -3.574200   -1.043490
  H      3.980280   -3.097710   -1.685220
  C      5.567340   -4.217360   -1.782160
  H      5.574810   -5.260520   -1.504950
  H      6.506860   -3.802510   -1.639180
  H      5.334240   -4.161600   -2.859810
  O     -5.532510   -1.358910    2.243540
  H     -5.067750   -0.886210    2.966710
  C     -6.811660   -0.884830    2.086860
  H     -7.255820   -1.295150    1.186480
  H     -6.769390    0.187560    1.893450
  H     -7.505960   -1.066730    2.977120
  O      0.491100   -3.864060   -4.820530
  H      0.718580   -4.772630   -5.130180
  C      1.275710   -3.673120   -3.662620
  H      0.919730   -2.759420   -3.138800
  H      2.332200   -3.480450   -3.875180
  H      1.192580   -4.534210   -3.013360
  O     -3.232540   -4.388560    3.549740
  H     -2.522210   -4.278230    4.162900
  C     -4.454560   -3.802050    4.071560
  H     -5.235690   -3.850190    3.294870
  H     -4.322130   -2.763670    4.407180
  H     -4.798700   -4.402630    4.931480
  O      4.393950   -1.421840   -4.583710
  H      4.965330   -0.669670   -4.713220
  C      4.796280   -2.437740   -5.537200
  H      4.056720   -3.203950   -5.611930
  H      5.754230   -2.917500   -5.301940
  H      4.911110   -2.042240   -6.592270
  O      1.483640    2.915880   -5.640690
  H      1.665260    2.957100   -6.566100
  C      2.703740    3.062490   -4.972280
  H      2.478810    2.992890   -3.867500
  H      3.148570    3.964530   -5.279590
  H      3.325060    2.234890   -5.192240
  O     -0.102630   -1.825360    6.263360
  H     -0.798420   -1.244480    6.532100
  C      1.059750   -1.068180    6.120960
  H      1.908080   -1.702040    6.135430
  H      1.106950   -0.387720    6.929730
  H      0.978110   -0.534930    5.193610
  O      2.658200    6.275210    0.223950
  H      2.603200    5.671780    0.975150
  C      2.959690    5.572640   -1.057810
  H      3.458860    6.237790   -1.724740
  H      2.041460    5.230850   -1.574750
  H      3.554680    4.684470   -0.846800

 Total Charge           Charge          ....    0
 Multiplicity           Mult            ....    1
 Number of Electrons    NEL             ....  360
 Basis Dimension        Dim             .... 1720

ORBITAL ENERGIES
----------------

  NO   OCC          E(Eh)            E(eV)
   0   2.0000     -20.571933      -559.7908
   1   2.0000     -20.565573      -559.6177
   2   2.0000     -20.559953      -559.4648
   3   2.0000     -20.559826      -559.4613
   4   2.0000     -20.559064      -559.4406
   5   2.0000     -20.558357      -559.4213
   6   2.0000     -20.551718      -559.2407
   7   2.0000     -20.550054      -559.1954
   8   2.0000     -20.549193      -559.1720
   9   2.0000     -20.546769      -559.1060
  10   2.0000     -20.545633      -559.0751
  11   2.0000     -20.535522      -558.7999
  12   2.0000     -20.530501      -558.6633
  13   2.0000     -20.526050      -558.5422
  14   2.0000     -20.525594      -558.5298
  15   2.0000     -20.517150      -558.3000
  16   2.0000     -20.507760      -558.0445
  17   2.0000     -20.507272      -558.0312
  18   2.0000     -20.493692      -557.6617
  19   2.0000     -20.483587      -557.3867
  20   2.0000     -11.287090      -307.1373
  21   2.0000     -11.283947      -307.0518
  22   2.0000     -11.274292      -306.7891
  23   2.0000     -11.274260      -306.7882
  24   2.0000     -11.271211      -306.7052
  25   2.0000     -11.268289      -306.6257
  26   2.0000     -11.266112      -306.5665
  27   2.0000     -11.265244      -306.5429
  28   2.0000     -11.252190      -306.1877
  29   2.0000     -11.248338      -306.0828
  30   2.0000     -11.246960      -306.0453
  31   2.0000     -11.244341      -305.9741
  32   2.0000     -11.244238      -305.9713
  33   2.0000     -11.243765      -305.9584
  34   2.0000     -11.241007      -305.8833
  35   2.0000     -11.240675      -305.8743
  36   2.0000     -11.237165      -305.7788
  37   2.0000     -11.224064      -305.4223
  38   2.0000     -11.208592      -305.0013
  39   2.0000     -11.206608      -304.9473
  40   2.0000      -1.377660       -37.4880
  41   2.0000      -1.376615       -37.4596
  42   2.0000      -1.367660       -37.2159
  43   2.0000      -1.367522       -37.2122
  44   2.0000      -1.362973       -37.0884
  45   2.0000      -1.362771       -37.0829
  46   2.0000      -1.361190       -37.0399
  47   2.0000      -1.355329       -36.8804
  48   2.0000      -1.353335       -36.8261
  49   2.0000      -1.344902       -36.5966
  50   2.0000      -1.343093       -36.5474
  51   2.0000      -1.340515       -36.4773
  52   2.0000      -1.335620       -36.3441
  53   2.0000      -1.322364       -35.9833
  54   2.0000      -1.320229       -35.9253
  55   2.0000      -1.317634       -35.8547
  56   2.0000      -1.309131       -35.6233
  57   2.0000      -1.299225       -35.3537
  58   2.0000      -1.292836       -35.1798
  59   2.0000      -1.276870       -34.7454
  60   2.0000      -0.941919       -25.6309
  61   2.0000      -0.939572       -25.5671
  62   2.0000      -0.934718       -25.4350
  63   2.0000      -0.931749       -25.3542
  64   2.0000      -0.929979       -25.3060
  65   2.0000      -0.927631       -25.2421
  66   2.0000      -0.925237       -25.1770
  67   2.0000      -0.922474       -25.1018
  68   2.0000      -0.919796       -25.0289
  69   2.0000      -0.916571       -24.9412
  70   2.0000      -0.914919       -24.8962
  71   2.0000      -0.911153       -24.7937
  72   2.0000      -0.904198       -24.6045
  73   2.0000      -0.903711       -24.5912
  74   2.0000      -0.902619       -24.5615
  75   2.0000      -0.898675       -24.4542
  76   2.0000      -0.895905       -24.3788
  77   2.0000      -0.886673       -24.1276
  78   2.0000      -0.882505       -24.0142
  79   2.0000      -0.859323       -23.3834
  80   2.0000      -0.716557       -19.4985
  81   2.0000      -0.708564       -19.2810
  82   2.0000      -0.702762       -19.1231
  83   2.0000      -0.701229       -19.0814
  84   2.0000      -0.699931       -19.0461
  85   2.0000      -0.698828       -19.0161
  86   2.0000      -0.694100       -18.8874
  87   2.0000      -0.685593       -18.6559
  88   2.0000      -0.685215       -18.6456
  89   2.0000      -0.684528       -18.6270
  90   2.0000      -0.682207       -18.5638
  91   2.0000      -0.678416       -18.4606
  92   2.0000      -0.674748       -18.3608
  93   2.0000      -0.669856       -18.2277
  94   2.0000      -0.665744       -18.1158
  95   2.0000      -0.654966       -17.8225
  96   2.0000      -0.652561       -17.7571
  97   2.0000      -0.645874       -17.5751
  98   2.0000      -0.642948       -17.4955
  99   2.0000      -0.640546       -17.4301
 100   2.0000      -0.636796       -17.3281
 101   2.0000      -0.631336       -17.1795
 102   2.0000      -0.627540       -17.0762
 103   2.0000      -0.627379       -17.0719
 104   2.0000      -0.626910       -17.0591
 105   2.0000      -0.625691       -17.0259
 106   2.0000      -0.624857       -17.0032
 107   2.0000      -0.621873       -16.9220
 108   2.0000      -0.616713       -16.7816
 109   2.0000      -0.616405       -16.7732
 110   2.0000      -0.615895       -16.7593
 111   2.0000      -0.614011       -16.7081
 112   2.0000      -0.612880       -16.6773
 113   2.0000      -0.607609       -16.5339
 114   2.0000      -0.605764       -16.4837
 115   2.0000      -0.604476       -16.4486
 116   2.0000      -0.601642       -16.3715
 117   2.0000      -0.601008       -16.3543
 118   2.0000      -0.599527       -16.3140
 119   2.0000      -0.598125       -16.2758
 120   2.0000      -0.595554       -16.2059
 121   2.0000      -0.589734       -16.0475
 122   2.0000      -0.589578       -16.0432
 123   2.0000      -0.588858       -16.0236
 124   2.0000      -0.585605       -15.9351
 125   2.0000      -0.584779       -15.9126
 126   2.0000      -0.584377       -15.9017
 127   2.0000      -0.579249       -15.7622
 128   2.0000      -0.576444       -15.6858
 129   2.0000      -0.572636       -15.5822
 130   2.0000      -0.569350       -15.4928
 131   2.0000      -0.566044       -15.4028
 132   2.0000      -0.563564       -15.3354
 133   2.0000      -0.562729       -15.3126
 134   2.0000      -0.562059       -15.2944
 135   2.0000      -0.560297       -15.2465
 136   2.0000      -0.559171       -15.2158
 137   2.0000      -0.555036       -15.1033
 138   2.0000      -0.537422       -14.6240
 139   2.0000      -0.531556       -14.4644
 140   2.0000      -0.521812       -14.1992
 141   2.0000      -0.518861       -14.1189
 142   2.0000      -0.516235       -14.0475
 143   2.0000      -0.513877       -13.9833
 144   2.0000      -0.505088       -13.7441
 145   2.0000      -0.503750       -13.7077
 146   2.0000      -0.502527       -13.6745
 147   2.0000      -0.499215       -13.5843
 148   2.0000      -0.495108       -13.4726
 149   2.0000      -0.494072       -13.4444
 150   2.0000      -0.488402       -13.2901
 151   2.0000      -0.485536       -13.2121
 152   2.0000      -0.484656       -13.1882
 153   2.0000      -0.484412       -13.1815
 154   2.0000      -0.475128       -12.9289
 155   2.0000      -0.468843       -12.7579
 156   2.0000      -0.467814       -12.7299
 157   2.0000      -0.464915       -12.6510
 158   2.0000      -0.460444       -12.5293
 159   2.0000      -0.458115       -12.4660
 160   2.0000      -0.457821       -12.4579
 161   2.0000      -0.454600       -12.3703
 162   2.0000      -0.454126       -12.3574
 163   2.0000      -0.453743       -12.3470
 164   2.0000      -0.450551       -12.2601
 165   2.0000      -0.444458       -12.0943
 166   2.0000      -0.443442       -12.0667
 167   2.0000      -0.438536       -11.9332
 168   2.0000      -0.437433       -11.9032
 169   2.0000      -0.436099       -11.8669
 170   2.0000      -0.435547       -11.8518
 171   2.0000      -0.430860       -11.7243
 172   2.0000      -0.430264       -11.7081
 173   2.0000      -0.427826       -11.6417
 174   2.0000      -0.422852       -11.5064
 175   2.0000      -0.418806       -11.3963
 176   2.0000      -0.416173       -11.3246
 177   2.0000      -0.406482       -11.0609
 178   2.0000      -0.394427       -10.7329
 179   2.0000      -0.385847       -10.4994
 180   0.0000       0.096703         2.6314
 181   0.0000       0.110062         2.9949
 182   0.0000       0.121362         3.3024
 183   0.0000       0.124832         3.3969
 184   0.0000       0.131488         3.5780

MULLIKEN ATOMIC CHARGES
-----------------------
   0 O :   -0.551440
   1 H :    0.349159
   2 C :   -0.033594
   3 H :    0.043712
   4 H :    0.107838
   5 H :    0.086239
   6 O :   -0.605520
   7 H :    0.379605
   8 C :   -0.081225
   9 H :    0.107512
  10 H :    0.110959
  11 H :    0.086726
  12 O :   -0.611390
  13 H :    0.405689
  14 C :   -0.056366
  15 H :    0.112953
  16 H :    0.076113
  17 H :    0.051761
  18 O :   -0.607909
  19 H :    0.352954
  20 C :   -0.114945
  21 H :    0.134961
  22 H :    0.146826
  23 H :    0.075659
  24 O :   -0.588705
  25 H :    0.358860
  26 C :   -0.066032
  27 H :    0.076709
  28 H :    0.092478
  29 H :    0.121787
  30 O :   -0.564070
  31 H :    0.357684
  32 C :   -0.105990
  33 H :    0.090144
  34 H :    0.095881
  35 H :    0.112911
  36 O :   -0.609192
  37 H :    0.387298
  38 C :   -0.070681
  39 H :    0.108445
  40 H :    0.093771
  41 H :    0.108204
  42 O :   -0.582651
  43 H :    0.352619
  44 C :   -0.074832
  45 H :    0.116283
  46 H :    0.102390
  47 H :    0.094263
  48 O :   -0.607616
  49 H :    0.381203
  50 C :   -0.055735
  51 H :    0.093623
  52 H :    0.082095
  53 H :    0.105417
  54 O :   -0.587752
  55 H :    0.329056
  56 C :   -0.057440
  57 H :    0.154246
  58 H :    0.091955
  59 H :    0.077776
  60 O :   -0.591822
  61 H :    0.338934
  62 C :   -0.099324
  63 H :    0.142427
  64 H :    0.091047
  65 H :    0.117964
  66 O :   -0.567245
  67 H :    0.361436
  68 C :   -0.074350
  69 H :    0.110024
  70 H :    0.074135
  71 H :    0.090494
  72 O :   -0.574694
  73 H :    0.371121
  74 C :   -0.058750
  75 H :    0.094812
  76 H :    0.096287
  77 H :    0.083914
  78 O :   -0.557039
  79 H :    0.335529
  80 C :   -0.053521
  81 H :    0.108962
  82 H :    0.084119
  83 H :    0.090221
  84 O :   -0.539079
  85 H :    0.320612
  86 C :   -0.060497
  87 H :    0.137169
  88 H :    0.045581
  89 H :    0.092388
  90 O :   -0.556062
  91 H :    0.330427
  92 C :   -0.060986
  93 H :    0.134203
  94 H :    0.060368
  95 H :    0.092665
  96 O :   -0.533769
  97 H :    0.333907
  98 C :   -0.119751
  99 H :    0.119647
 100 H :    0.099434
 101 H :    0.111437
 102 O :   -0.532744
 103 H :    0.312340
 104 C :   -0.071448
 105 H :    0.142456
 106 H :    0.087567
 107 H :    0.067803
 108 O :   -0.552852
 109 H :    0.322821
 110 C :   -0.054804
 111 H :    0.099253
 112 H :    0.091334
 113 H :    0.095932
 114 O :   -0.584585
 115 H :    0.335095
 116 C :   -0.038485
 117 H :    0.101489
 118 H :    0.115218
 119 H :    0.060556
Sum of atomic charges:   -0.0000000

LOEWDIN ATOMIC CHARGES
----------------------
   0 O :   -0.049496
   1 H :    0.164289
   2 C :   -0.382684
   3 H :    0.085931
   4 H :    0.091403
   5 H :    0.083789
   6 O :   -0.137436
   7 H :    0.164832
   8 C :   -0.312210
   9 H :    0.093720
  10 H :    0.081486
  11 H :    0.083176
  12 O :   -0.097462
  13 H :    0.146812
  14 C :   -0.338662
  15 H :    0.094536
  16 H :    0.086158
  17 H :    0.076872
  18 O :   -0.147698
  19 H :    0.166252
  20 C :   -0.320267
  21 H :    0.107565
  22 H :    0.090729
  23 H :    0.087974
  24 O :   -0.114585
  25 H :    0.182835
  26 C :   -0.362549
  27 H :    0.091338
  28 H :    0.078797
  29 H :    0.101916
  30 O :   -0.136527
  31 H :    0.159500
  32 C :   -0.314748
  33 H :    0.087016
  34 H :    0.082814
  35 H :    0.085073
  36 O :   -0.075304
  37 H :    0.166279
  38 C :   -0.326444
  39 H :    0.095527
  40 H :    0.103580
  41 H :    0.086729
  42 O :   -0.106070
  43 H :    0.167004
  44 C :   -0.319865
  45 H :    0.108151
  46 H :    0.089384
  47 H :    0.093585
  48 O :   -0.106287
  49 H :    0.174955
  50 C :   -0.332699
  51 H :    0.090619
  52 H :    0.087591
  53 H :    0.089054
  54 O :   -0.108026
  55 H :    0.174006
  56 C :   -0.332986
  57 H :    0.105553
  58 H :    0.097828
  59 H :    0.082573
  60 O :   -0.131639
  61 H :    0.174739
  62 C :   -0.324131
  63 H :    0.108425
  64 H :    0.096919
  65 H :    0.087748
  66 O :   -0.136612
  67 H :    0.190891
  68 C :   -0.323447
  69 H :    0.097254
  70 H :    0.068028
  71 H :    0.083259
  72 O :   -0.104402
  73 H :    0.199402
  74 C :   -0.338817
  75 H :    0.091374
  76 H :    0.079722
  77 H :    0.094956
  78 O :   -0.071985
  79 H :    0.181767
  80 C :   -0.377355
  81 H :    0.101724
  82 H :    0.089101
  83 H :    0.092988
  84 O :   -0.114371
  85 H :    0.184196
  86 C :   -0.348515
  87 H :    0.113767
  88 H :    0.079457
  89 H :    0.086017
  90 O :   -0.121919
  91 H :    0.157194
  92 C :   -0.314561
  93 H :    0.108152
  94 H :    0.081331
  95 H :    0.089757
  96 O :   -0.119339
  97 H :    0.166442
  98 C :   -0.322141
  99 H :    0.094394
 100 H :    0.087570
 101 H :    0.099986
 102 O :   -0.079187
 103 H :    0.156509
 104 C :   -0.345486
 105 H :    0.119445
 106 H :    0.079910
 107 H :    0.075122
 108 O :   -0.090672
 109 H :    0.160870
 110 C :   -0.334124
 111 H :    0.092854
 112 H :    0.083292
 113 H :    0.087651
 114 O :   -0.170915
 115 H :    0.161382
 116 C :   -0.276971
 117 H :    0.087813
 118 H :    0.103744
 119 H :    0.086207

  Mayer bond orders larger than 0.100000
B(  0-O ,  1-H ) :   0.8841 B(  0-O ,  2-C ) :   0.9141 B(  2-C ,  3-H ) :   0.9998
B(  2-C ,  4-H ) :   0.9923 B(  2-C ,  5-H ) :   0.9891 B(  6-O ,  7-H ) :   0.8334
B(  6-O ,  8-C ) :   0.9158 B(  8-C ,  9-H ) :   0.9845 B(  8-C , 10-H ) :   0.9908
B(  8-C , 11-H ) :   0.9969 B( 12-O , 13-H ) :   0.8069 B( 12-O , 14-C ) :   0.9437
B( 14-C , 15-H ) :   0.9876 B( 14-C , 16-H ) :   0.9912 B( 14-C , 17-H ) :   1.0008
B( 18-O , 19-H ) :   0.8754 B( 18-O , 20-C ) :   0.8811 B( 20-C , 21-H ) :   0.9814
B( 20-C , 22-H ) :   0.9797 B( 20-C , 23-H ) :   0.9944 B( 24-O , 25-H ) :   0.8549
B( 24-O , 26-C ) :   0.9135 B( 26-C , 27-H ) :   0.9876 B( 26-C , 28-H ) :   0.9948
B( 26-C , 29-H ) :   0.9912 B( 30-O , 31-H ) :   0.8650 B( 30-O , 32-C ) :   0.9296
B( 32-C , 33-H ) :   0.9896 B( 32-C , 34-H ) :   0.9898 B( 32-C , 35-H ) :   0.9909
B( 36-O , 37-H ) :   0.8420 B( 36-O , 38-C ) :   0.8969 B( 38-C , 39-H ) :   0.9900
B( 38-C , 40-H ) :   0.9959 B( 38-C , 41-H ) :   0.9863 B( 42-O , 43-H ) :   0.8712
B( 42-O , 44-C ) :   0.8955 B( 44-C , 45-H ) :   0.9804 B( 44-C , 46-H ) :   0.9924
B( 44-C , 47-H ) :   0.9919 B( 48-O , 49-H ) :   0.8452 B( 48-O , 50-C ) :   0.9066
B( 50-C , 51-H ) :   0.9919 B( 50-C , 52-H ) :   0.9912 B( 50-C , 53-H ) :   0.9922
B( 54-O , 55-H ) :   0.8900 B( 54-O , 56-C ) :   0.8492 B( 56-C , 57-H ) :   0.9745
B( 56-C , 58-H ) :   0.9992 B( 56-C , 59-H ) :   0.9966 B( 60-O , 61-H ) :   0.8872
B( 60-O , 62-C ) :   0.8725 B( 62-C , 63-H ) :   0.9891 B( 62-C , 64-H ) :   0.9923
B( 62-C , 65-H ) :   0.9834 B( 66-O , 67-H ) :   0.8566 B( 66-O , 68-C ) :   0.9598
B( 68-C , 69-H ) :   0.9872 B( 68-C , 70-H ) :   0.9875 B( 68-C , 71-H ) :   0.9891
B( 72-O , 73-H ) :   0.8594 B( 72-O , 74-C ) :   0.9269 B( 74-C , 75-H ) :   0.9950
B( 74-C , 76-H ) :   0.9876 B( 74-C , 77-H ) :   0.9971 B( 78-O , 79-H ) :   0.8778
B( 78-O , 80-C ) :   0.9107 B( 80-C , 81-H ) :   0.9878 B( 80-C , 82-H ) :   0.9954
B( 80-C , 83-H ) :   0.9847 B( 84-O , 85-H ) :   0.8957 B( 84-O , 86-C ) :   0.9272
B( 86-C , 87-H ) :   0.9807 B( 86-C , 88-H ) :   0.9870 B( 86-C , 89-H ) :   0.9993
B( 90-O , 91-H ) :   0.8898 B( 90-O , 92-C ) :   0.9214 B( 92-C , 93-H ) :   0.9813
B( 92-C , 94-H ) :   0.9870 B( 92-C , 95-H ) :   0.9837 B( 96-O , 97-H ) :   0.8891
B( 96-O , 98-C ) :   0.9350 B( 98-C , 99-H ) :   0.9857 B( 98-C ,100-H ) :   0.9830
B( 98-C ,101-H ) :   0.9861 B(102-O ,103-H ) :   0.9004 B(102-O ,104-C ) :   0.9239
B(104-C ,105-H ) :   0.9811 B(104-C ,106-H ) :   0.9833 B(104-C ,107-H ) :   0.9938
B(108-O ,109-H ) :   0.8979 B(108-O ,110-C ) :   0.9114 B(110-C ,111-H ) :   0.9813
B(110-C ,112-H ) :   1.0014 B(110-C ,113-H ) :   0.9948 B(114-O ,115-H ) :   0.8859
B(114-O ,116-C ) :   0.9223 B(116-C ,117-H ) :   0.9857 B(116-C ,118-H ) :   0.9891
B(116-C ,119-H ) :   0.9950

MP2 TOTAL ENERGY:    -2310.186614900 Eh
FINAL SINGLE POINT ENERGY     -2310.186614899537

DIPOLE MOMENT
-------------
                                X             Y             Z
Electronic contribution:    -10.16905       6.54515       0.01748
Nuclear contribution   :     12.55438      -9.73478       1.57580
                        -----------------------------------------
Total Dipole Moment    :      2.38533      -3.18963       1.59328
                        -----------------------------------------
Magnitude (a.u.)       :      4.28976
Magnitude (Debye)      :     10.90371

Rotational constants in cm-1:     0.001671     0.001321     0.001185
Rotational constants in MHz :    50.090651    39.591766    35.538032

                             ****ORCA TERMINATED NORMALLY****
TOTAL RUN TIME: 0 days 0 hours 19 minutes 4 seconds 702 msec
