                         Program Version 4.2.0 -  RELEASE  -
|  1> ! engrad MP2 def2-TZVP TightSCF FrozenCore
|  2> %pal nprocs 24 end
|  3>
|  4> %maxcore 8000
|  5>
|  6> %scf    ConvForced true end
|  7> *xyz 0 1
|  8> O   0.11574908099984253 -4.020886466707639 -0.8312133344727797
|  9> H   -0.4932686905887901 -3.322275024278798 -1.0489322356697623
| 10> H   1.0121798082207725 -3.678131831388587 -0.5736327960935279
| 11> O   -1.8998075080824437 -0.6608477085156723 -1.2498878311584527
| 12> H   -2.2551348816947376 -0.40662319974263583 -2.1320750071365224
| 13> H   -2.2287581720807954 0.0409007931685699 -0.6181899863829093
| 14> O   -2.265574705407698 1.6310886578093247 0.3895447313302952
| 15> H   -1.409790285070239 1.911103971674959 0.35119615073814936
| 16> H   -2.869776653715304 2.3599384656168345 0.7200384904527799
| 17> O   2.8204516673679287 0.8005570826712131 1.5696951411853663
| 18> H   2.1338922708396093 0.23756449626925147 1.1561782002730348
| 19> H   2.7546068834332207 0.6731204630583366 2.5507938663767957
| 20> O   0.785745149410634 -0.3516698398274208 -0.3784906922936391
| 21> H   -0.12631698604801728 -0.6599843949718338 -0.7795952997496547
| 22> H   1.410372590631806 -0.7182071149913153 -1.0345726541472724
| 23> O   0.4679728334696966 2.4824768434861264 0.537005627103599
| 24> H   0.7791654133794514 3.011154390380542 1.280650498970968
| 25> H   1.1268631032362326 1.8251139927523106 0.30663731494580915
| 26> *
| 27>
| 28>                          ****END OF INPUT****

CARTESIAN COORDINATES (ANGSTROEM)
---------------------------------
  O      0.115749   -4.020886   -0.831213
  H     -0.493269   -3.322275   -1.048932
  H      1.012180   -3.678132   -0.573633
  O     -1.899808   -0.660848   -1.249888
  H     -2.255135   -0.406623   -2.132075
  H     -2.228758    0.040901   -0.618190
  O     -2.265575    1.631089    0.389545
  H     -1.409790    1.911104    0.351196
  H     -2.869777    2.359938    0.720038
  O      2.820452    0.800557    1.569695
  H      2.133892    0.237564    1.156178
  H      2.754607    0.673120    2.550794
  O      0.785745   -0.351670   -0.378491
  H     -0.126317   -0.659984   -0.779595
  H      1.410373   -0.718207   -1.034573
  O      0.467973    2.482477    0.537006
  H      0.779165    3.011154    1.280650
  H      1.126863    1.825114    0.306637

 Total Charge           Charge          ....    0
 Multiplicity           Mult            ....    1
 Number of Electrons    NEL             ....   60
 Basis Dimension        Dim             ....  258

ORBITAL ENERGIES
----------------

  NO   OCC          E(Eh)            E(eV)
   0   2.0000     -20.572946      -559.8183
   1   2.0000     -20.569821      -559.7333
   2   2.0000     -20.559216      -559.4447
   3   2.0000     -20.558075      -559.4137
   4   2.0000     -20.554420      -559.3142
   5   2.0000     -20.550321      -559.2027
   6   2.0000      -1.360586       -37.0234
   7   2.0000      -1.346070       -36.6284
   8   2.0000      -1.343615       -36.5616
   9   2.0000      -1.332876       -36.2694
  10   2.0000      -1.329267       -36.1712
  11   2.0000      -1.328320       -36.1454
  12   2.0000      -0.740322       -20.1452
  13   2.0000      -0.726535       -19.7700
  14   2.0000      -0.717527       -19.5249
  15   2.0000      -0.712607       -19.3910
  16   2.0000      -0.705094       -19.1866
  17   2.0000      -0.689209       -18.7543
  18   2.0000      -0.615561       -16.7503
  19   2.0000      -0.594834       -16.1863
  20   2.0000      -0.579298       -15.7635
  21   2.0000      -0.568832       -15.4787
  22   2.0000      -0.555853       -15.1255
  23   2.0000      -0.554809       -15.0971
  24   2.0000      -0.519174       -14.1274
  25   2.0000      -0.516261       -14.0482
  26   2.0000      -0.506562       -13.7843
  27   2.0000      -0.505122       -13.7451
  28   2.0000      -0.498192       -13.5565
  29   2.0000      -0.496197       -13.5022
  30   0.0000       0.100558         2.7363
  31   0.0000       0.131310         3.5731
  32   0.0000       0.134838         3.6691
  33   0.0000       0.155725         4.2375
  34   0.0000       0.180650         4.9157

MULLIKEN ATOMIC CHARGES
-----------------------
   0 O :   -0.698077
   1 H :    0.352871
   2 H :    0.343254
   3 O :   -0.736328
   4 H :    0.351849
   5 H :    0.406870
   6 O :   -0.731033
   7 H :    0.378690
   8 H :    0.356340
   9 O :   -0.708272
  10 H :    0.357326
  11 H :    0.343483
  12 O :   -0.731323
  13 H :    0.377452
  14 H :    0.333654
  15 O :   -0.713847
  16 H :    0.346013
  17 H :    0.371078
Sum of atomic charges:    0.0000000

LOEWDIN ATOMIC CHARGES
----------------------
   0 O :   -0.332920
   1 H :    0.150231
   2 H :    0.177618
   3 O :   -0.334557
   4 H :    0.176021
   5 H :    0.179734
   6 O :   -0.289227
   7 H :    0.099966
   8 H :    0.193523
   9 O :   -0.347005
  10 H :    0.158112
  11 H :    0.177641
  12 O :   -0.372457
  13 H :    0.193702
  14 H :    0.159022
  15 O :   -0.299677
  16 H :    0.160997
  17 H :    0.149277

  Mayer bond orders larger than 0.100000
B(  0-O ,  1-H ) :   0.8428 B(  0-O ,  2-H ) :   0.8418 B(  3-O ,  4-H ) :   0.8374
B(  3-O ,  5-H ) :   0.7721 B(  6-O ,  7-H ) :   0.8103 B(  6-O ,  8-H ) :   0.8339
B(  9-O , 10-H ) :   0.8195 B(  9-O , 11-H ) :   0.8430 B( 12-O , 13-H ) :   0.7675
B( 12-O , 14-H ) :   0.8474 B( 15-O , 16-H ) :   0.8439 B( 15-O , 17-H ) :   0.8143

MP2 TOTAL ENERGY:     -457.913865781 Eh
FINAL SINGLE POINT ENERGY      -457.913865780503

DIPOLE MOMENT
-------------
                                X             Y             Z
Electronic contribution:     -0.14439      -0.01966       0.01844
Nuclear contribution   :     -0.17899       1.25873       0.08756
                        -----------------------------------------
Total Dipole Moment    :     -0.32338       1.23907       0.10599
                        -----------------------------------------
Magnitude (a.u.)       :      1.28495
Magnitude (Debye)      :      3.26609

Rotational constants in cm-1:     0.045549     0.031107     0.019465
Rotational constants in MHz :  1365.520959   932.568811   583.548000

                             ****ORCA TERMINATED NORMALLY****
TOTAL RUN TIME: 0 days 0 hours 0 minutes 33 seconds 993 msec
