                         Program Version 4.2.0 -  RELEASE  -
|  1> ! engrad MP2 def2-TZVP TightSCF FrozenCore
|  2> %pal nprocs 24 end
|  3>
|  4> %maxcore 8000
|  5>
|  6> %scf    ConvForced true end
|  7> *xyz 0 1
|  8> C   1.8909313247172832 0.2578068453645528 -3.071794534151466
|  9> H   0.8404315285798192 0.6631000676189016 -3.0744625801327667
| 10> H   2.3050570188496597 0.5929560859405967 -4.006908270721022
| 11> H   2.3965990190046638 0.8113430330813196 -2.2360722366059065
| 12> C   1.9186020580823016 -1.1464929780003268 -2.856245423303161
| 13> N   2.042326401852066 -2.30041429530257 -2.9993049403138863
| 14> C   -2.59417950692662 -3.311437430603188 1.7367310833069791
| 15> H   -1.5724389597306998 -3.3875054453469526 1.7782582251424297
| 16> H   -2.935950208617371 -3.5939597513300696 0.773826308689426
| 17> H   -2.8378616518623803 -4.05420370702159 2.5367390601454978
| 18> C   -2.9509099779245864 -2.007265312481855 2.0881956736981877
| 19> N   -3.213831414153288 -0.8776113590017275 2.3920314591627725
| 20> C   0.6961480470026257 1.1525503294508619 2.1398207991130738
| 21> H   1.6265944263138894 1.6659720620681 2.386963356957975
| 22> H   0.5315493380909483 1.0213783602092146 1.0777554376234595
| 23> H   0.5310666938535278 0.18843138239525944 2.6556781034010157
| 24> C   -0.4161287672133964 2.0536151866417383 2.6067465058976125
| 25> N   -1.3331975184004732 2.7653505104061646 2.8065873143673974
| 26> C   2.003294647719538 -4.704424568917471 -0.2220954128202764
| 27> H   1.4345352751744065 -5.477021277671069 -0.8483189649087234
| 28> H   2.8246885257248886 -5.092456963488834 0.4001574265197108
| 29> H   2.4776560269115953 -3.9607788872567786 -0.8843623662567914
| 30> C   1.108996427097889 -4.003839070845174 0.6472456823495024
| 31> N   0.34642277204309124 -3.4427620288384078 1.3696177317863745
| 32> C   1.3147072995590636 4.012138165175447 -0.7064071334700848
| 33> H   0.6406567576086701 4.805941576883253 -1.1105658630017585
| 34> H   1.9320093426778921 4.5246944422795545 0.07321230968576639
| 35> H   0.8143207989084129 3.0876613261440906 -0.2822488312594384
| 36> C   2.149722745113194 3.604154261499011 -1.8009813396288847
| 37> N   2.6309252235935445 3.1842297150662793 -2.768436457988752
| 38> C   -3.082192236010399 1.6606489576238412 0.14382991703504616
| 39> H   -3.872121632638653 2.1649654326635925 -0.4342643021756403
| 40> H   -2.935124118243576 2.2053167903329753 1.1513193102346588
| 41> H   -3.3889775631975443 0.6424600177209148 0.3057250380663279
| 42> C   -1.8082361526488493 1.5803102086701963 -0.5259260815017843
| 43> N   -0.7451753624995943 1.4877171761021653 -1.0133363422036674
| 44> *
| 45>
| 46>                          ****END OF INPUT****

CARTESIAN COORDINATES (ANGSTROEM)
---------------------------------
  C      1.890931    0.257807   -3.071795
  H      0.840432    0.663100   -3.074463
  H      2.305057    0.592956   -4.006908
  H      2.396599    0.811343   -2.236072
  C      1.918602   -1.146493   -2.856245
  N      2.042326   -2.300414   -2.999305
  C     -2.594180   -3.311437    1.736731
  H     -1.572439   -3.387505    1.778258
  H     -2.935950   -3.593960    0.773826
  H     -2.837862   -4.054204    2.536739
  C     -2.950910   -2.007265    2.088196
  N     -3.213831   -0.877611    2.392031
  C      0.696148    1.152550    2.139821
  H      1.626594    1.665972    2.386963
  H      0.531549    1.021378    1.077755
  H      0.531067    0.188431    2.655678
  C     -0.416129    2.053615    2.606747
  N     -1.333198    2.765351    2.806587
  C      2.003295   -4.704425   -0.222095
  H      1.434535   -5.477021   -0.848319
  H      2.824689   -5.092457    0.400157
  H      2.477656   -3.960779   -0.884362
  C      1.108996   -4.003839    0.647246
  N      0.346423   -3.442762    1.369618
  C      1.314707    4.012138   -0.706407
  H      0.640657    4.805942   -1.110566
  H      1.932009    4.524694    0.073212
  H      0.814321    3.087661   -0.282249
  C      2.149723    3.604154   -1.800981
  N      2.630925    3.184230   -2.768436
  C     -3.082192    1.660649    0.143830
  H     -3.872122    2.164965   -0.434264
  H     -2.935124    2.205317    1.151319
  H     -3.388978    0.642460    0.305725
  C     -1.808236    1.580310   -0.525926
  N     -0.745175    1.487717   -1.013336

 Total Charge           Charge          ....    0
 Multiplicity           Mult            ....    1
 Number of Electrons    NEL             ....  132
 Basis Dimension        Dim             ....  666

ORBITAL ENERGIES
----------------

  NO   OCC          E(Eh)            E(eV)
   0   2.0000     -15.589621      -424.2152
   1   2.0000     -15.579022      -423.9267
   2   2.0000     -15.574627      -423.8071
   3   2.0000     -15.574416      -423.8014
   4   2.0000     -15.569681      -423.6726
   5   2.0000     -15.567711      -423.6190
   6   2.0000     -11.306240      -307.6584
   7   2.0000     -11.296187      -307.3849
   8   2.0000     -11.289036      -307.1903
   9   2.0000     -11.286653      -307.1254
  10   2.0000     -11.286320      -307.1164
  11   2.0000     -11.283697      -307.0450
  12   2.0000     -11.282727      -307.0186
  13   2.0000     -11.278639      -306.9074
  14   2.0000     -11.276347      -306.8450
  15   2.0000     -11.267926      -306.6158
  16   2.0000     -11.254195      -306.2422
  17   2.0000     -11.246394      -306.0300
  18   2.0000      -1.223615       -33.2962
  19   2.0000      -1.221202       -33.2306
  20   2.0000      -1.219944       -33.1964
  21   2.0000      -1.210794       -32.9474
  22   2.0000      -1.208644       -32.8889
  23   2.0000      -1.197837       -32.5948
  24   2.0000      -1.048712       -28.5369
  25   2.0000      -1.044602       -28.4251
  26   2.0000      -1.033492       -28.1227
  27   2.0000      -1.029690       -28.0193
  28   2.0000      -1.027649       -27.9637
  29   2.0000      -1.017865       -27.6975
  30   2.0000      -0.714344       -19.4383
  31   2.0000      -0.699928       -19.0460
  32   2.0000      -0.695926       -18.9371
  33   2.0000      -0.691105       -18.8059
  34   2.0000      -0.684400       -18.6235
  35   2.0000      -0.675057       -18.3692
  36   2.0000      -0.644890       -17.5484
  37   2.0000      -0.640463       -17.4279
  38   2.0000      -0.635961       -17.3054
  39   2.0000      -0.635311       -17.2877
  40   2.0000      -0.621653       -16.9160
  41   2.0000      -0.620196       -16.8764
  42   2.0000      -0.618781       -16.8379
  43   2.0000      -0.614439       -16.7197
  44   2.0000      -0.611658       -16.6440
  45   2.0000      -0.604190       -16.4408
  46   2.0000      -0.602547       -16.3961
  47   2.0000      -0.591905       -16.1066
  48   2.0000      -0.563878       -15.3439
  49   2.0000      -0.560029       -15.2392
  50   2.0000      -0.558704       -15.2031
  51   2.0000      -0.552452       -15.0330
  52   2.0000      -0.551854       -15.0167
  53   2.0000      -0.551034       -14.9944
  54   2.0000      -0.469607       -12.7786
  55   2.0000      -0.467269       -12.7150
  56   2.0000      -0.466241       -12.6871
  57   2.0000      -0.463005       -12.5990
  58   2.0000      -0.461043       -12.5456
  59   2.0000      -0.456943       -12.4340
  60   2.0000      -0.455299       -12.3893
  61   2.0000      -0.451342       -12.2816
  62   2.0000      -0.446819       -12.1586
  63   2.0000      -0.443518       -12.0687
  64   2.0000      -0.442439       -12.0394
  65   2.0000      -0.433737       -11.8026
  66   0.0000       0.102755         2.7961
  67   0.0000       0.118983         3.2377
  68   0.0000       0.132480         3.6050
  69   0.0000       0.137949         3.7538
  70   0.0000       0.145023         3.9463

MULLIKEN ATOMIC CHARGES
-----------------------
   0 C :   -0.329829
   1 H :    0.184802
   2 H :    0.189501
   3 H :    0.158651
   4 C :   -0.046574
   5 N :   -0.165203
   6 C :   -0.256313
   7 H :    0.186037
   8 H :    0.159546
   9 H :    0.164312
  10 C :   -0.079100
  11 N :   -0.190239
  12 C :   -0.294923
  13 H :    0.164861
  14 H :    0.179873
  15 H :    0.188157
  16 C :   -0.080137
  17 N :   -0.156636
  18 C :   -0.285387
  19 H :    0.177080
  20 H :    0.173388
  21 H :    0.206403
  22 C :   -0.036521
  23 N :   -0.216317
  24 C :   -0.294153
  25 H :    0.174890
  26 H :    0.170361
  27 H :    0.174423
  28 C :   -0.097425
  29 N :   -0.130357
  30 C :   -0.285589
  31 H :    0.173002
  32 H :    0.213725
  33 H :    0.180936
  34 C :   -0.032585
  35 N :   -0.242660
Sum of atomic charges:   -0.0000000

LOEWDIN ATOMIC CHARGES
----------------------
   0 C :   -0.302150
   1 H :    0.163329
   2 H :    0.150192
   3 H :    0.160681
   4 C :   -0.217489
   5 N :    0.025952
   6 C :   -0.285392
   7 H :    0.135527
   8 H :    0.144908
   9 H :    0.164515
  10 C :   -0.206520
  11 N :    0.019880
  12 C :   -0.279554
  13 H :    0.146439
  14 H :    0.146076
  15 H :    0.158887
  16 C :   -0.197679
  17 N :    0.025234
  18 C :   -0.287190
  19 H :    0.170076
  20 H :    0.157282
  21 H :    0.164487
  22 C :   -0.191967
  23 N :    0.019880
  24 C :   -0.293421
  25 H :    0.164481
  26 H :    0.153757
  27 H :    0.163389
  28 C :   -0.229087
  29 N :    0.044217
  30 C :   -0.285753
  31 H :    0.149095
  32 H :    0.181088
  33 H :    0.153369
  34 C :   -0.197114
  35 N :    0.010576

  Mayer bond orders larger than 0.100000
B(  0-C ,  1-H ) :   0.9014 B(  0-C ,  2-H ) :   0.9122 B(  0-C ,  3-H ) :   0.9016
B(  0-C ,  4-C ) :   0.9619 B(  4-C ,  5-N ) :   2.7478 B(  6-C ,  7-H ) :   0.8969
B(  6-C ,  8-H ) :   0.9129 B(  6-C ,  9-H ) :   0.9097 B(  6-C , 10-C ) :   0.9250
B( 10-C , 11-N ) :   2.7206 B( 12-C , 13-H ) :   0.9173 B( 12-C , 14-H ) :   0.9148
B( 12-C , 15-H ) :   0.9092 B( 12-C , 16-C ) :   0.8890 B( 16-C , 17-N ) :   2.7301
B( 18-C , 19-H ) :   0.9016 B( 18-C , 20-H ) :   0.9133 B( 18-C , 21-H ) :   0.9017
B( 18-C , 22-C ) :   0.9044 B( 22-C , 23-N ) :   2.6744 B( 24-C , 25-H ) :   0.9115
B( 24-C , 26-H ) :   0.9156 B( 24-C , 27-H ) :   0.8980 B( 24-C , 28-C ) :   0.9144
B( 28-C , 29-N ) :   2.7661 B( 30-C , 31-H ) :   0.9141 B( 30-C , 32-H ) :   0.8842
B( 30-C , 33-H ) :   0.9075 B( 30-C , 34-C ) :   0.9000 B( 34-C , 35-N ) :   2.6396

MP2 TOTAL ENERGY:     -794.893448598 Eh
FINAL SINGLE POINT ENERGY      -794.893448598197

DIPOLE MOMENT
-------------
                                X             Y             Z
Electronic contribution:     -0.49211       1.82951      -0.05171
Nuclear contribution   :      0.77651      -2.85136       0.28387
                        -----------------------------------------
Total Dipole Moment    :      0.28440      -1.02185       0.23216
                        -----------------------------------------
Magnitude (a.u.)       :      1.08580
Magnitude (Debye)      :      2.75987

Rotational constants in cm-1:     0.008849     0.007364     0.004779
Rotational constants in MHz :   265.297640   220.762207   143.277233

                             ****ORCA TERMINATED NORMALLY****
TOTAL RUN TIME: 0 days 0 hours 14 minutes 59 seconds 696 msec
