                         Program Version 4.2.0 -  RELEASE  -
|  1> ! engrad MP2 def2-TZVP TightSCF FrozenCore
|  2> %pal nprocs 24 end
|  3>
|  4> %maxcore 8000
|  5>
|  6> %scf    ConvForced true end
|  7> *xyz 0 1
|  8> O   -2.0782172887764947 0.09326023458783225 2.801955058437034
|  9> H   -1.1965038568607982 0.3971618234846834 2.7794076054365946
| 10> C   -3.0354815627910217 0.5876002753935105 1.8732814773710154
| 11> H   -3.9724466346945695 0.15328211200973094 2.1815124074375194
| 12> H   -2.833183386590176 0.22515151716887202 0.9005249583621178
| 13> H   -3.1954587207515326 1.6304969614693086 1.802312972667808
| 14> O   0.5154378618502846 -1.7570444443484756 -1.6972651655667523
| 15> H   0.26915660710250167 -1.5120506686737465 -0.8116849951093539
| 16> C   0.24214941658477246 -3.1448987908999846 -1.798154221795337
| 17> H   0.1009243117348704 -3.3308777575683948 -2.854356379897984
| 18> H   -0.6962215206677189 -3.3217693430524404 -1.2280131729973303
| 19> H   0.9924263546283161 -3.7446496497375317 -1.28092493132612
| 20> O   0.2603487203311081 1.9721105685128872 -0.4371726591624052
| 21> H   -0.12835833217087353 1.2526336494285963 -1.0849317172480613
| 22> C   1.5063715938244906 2.390038722670703 -0.9802194215856972
| 23> H   1.490463117267024 2.5793190555074395 -2.0804230273709163
| 24> H   2.324901761326132 1.7165076796256655 -0.7360616286341592
| 25> H   1.5853664105759262 3.3538317654204253 -0.46795908976230316
| 26> O   0.3592327570770357 0.7324420285105269 -3.124377430545969
| 27> H   0.704684242756796 -0.17377330793638937 -2.9099639962559207
| 28> C   -0.011221023544043621 0.6464755238008968 -4.490708602807641
| 29> H   0.7726049906317894 0.3025190720535847 -5.17807517076114
| 30> H   -0.3780652097467544 1.6472291073633851 -4.908944714802986
| 31> H   -0.8196893369538368 -0.11905235282295494 -4.777545079820133
| 32> O   0.6051327998407179 0.7905178090430639 2.226782383265095
| 33> H   0.2037433005479826 1.2895404985753662 1.4827073703420142
| 34> C   1.0266234583489564 1.629494898387766 3.2339666370774722
| 35> H   1.540197210862149 1.0194475811795995 3.9097455175075195
| 36> H   0.08368863579025042 2.0117550181075305 3.7533384338000877
| 37> H   1.5915950977883784 2.5008303220986345 2.9001502104915757
| 38> O   -0.3303282203885331 -1.8505276328780091 0.9753157803277221
| 39> H   -0.6576183559530608 -1.180297222664212 1.5841122743174607
| 40> C   1.0233964458007865 -2.1345069327173216 1.48408266454773
| 41> H   1.6393685533057238 -1.2721229644518526 1.4079951350170468
| 42> H   1.4203156054544517 -2.962245137492523 0.874065737621261
| 43> H   1.0331350969438824 -2.4838214111972117 2.576229876389803
| 44> *
| 45>
| 46>                          ****END OF INPUT****

CARTESIAN COORDINATES (ANGSTROEM)
---------------------------------
  O     -2.078217    0.093260    2.801955
  H     -1.196504    0.397162    2.779408
  C     -3.035482    0.587600    1.873281
  H     -3.972447    0.153282    2.181512
  H     -2.833183    0.225152    0.900525
  H     -3.195459    1.630497    1.802313
  O      0.515438   -1.757044   -1.697265
  H      0.269157   -1.512051   -0.811685
  C      0.242149   -3.144899   -1.798154
  H      0.100924   -3.330878   -2.854356
  H     -0.696222   -3.321769   -1.228013
  H      0.992426   -3.744650   -1.280925
  O      0.260349    1.972111   -0.437173
  H     -0.128358    1.252634   -1.084932
  C      1.506372    2.390039   -0.980219
  H      1.490463    2.579319   -2.080423
  H      2.324902    1.716508   -0.736062
  H      1.585366    3.353832   -0.467959
  O      0.359233    0.732442   -3.124377
  H      0.704684   -0.173773   -2.909964
  C     -0.011221    0.646476   -4.490709
  H      0.772605    0.302519   -5.178075
  H     -0.378065    1.647229   -4.908945
  H     -0.819689   -0.119052   -4.777545
  O      0.605133    0.790518    2.226782
  H      0.203743    1.289540    1.482707
  C      1.026623    1.629495    3.233967
  H      1.540197    1.019448    3.909746
  H      0.083689    2.011755    3.753338
  H      1.591595    2.500830    2.900150
  O     -0.330328   -1.850528    0.975316
  H     -0.657618   -1.180297    1.584112
  C      1.023396   -2.134507    1.484083
  H      1.639369   -1.272123    1.407995
  H      1.420316   -2.962245    0.874066
  H      1.033135   -2.483821    2.576230

 Total Charge           Charge          ....    0
 Multiplicity           Mult            ....    1
 Number of Electrons    NEL             ....  108
 Basis Dimension        Dim             ....  516

ORBITAL ENERGIES
----------------

  NO   OCC          E(Eh)            E(eV)
   0   2.0000     -20.563084      -559.5500
   1   2.0000     -20.560182      -559.4710
   2   2.0000     -20.559209      -559.4445
   3   2.0000     -20.558756      -559.4322
   4   2.0000     -20.544703      -559.0498
   5   2.0000     -20.538265      -558.8746
   6   2.0000     -11.281529      -306.9860
   7   2.0000     -11.274117      -306.7843
   8   2.0000     -11.273387      -306.7645
   9   2.0000     -11.265155      -306.5405
  10   2.0000     -11.260598      -306.4164
  11   2.0000     -11.256414      -306.3026
  12   2.0000      -1.383095       -37.6359
  13   2.0000      -1.362109       -37.0649
  14   2.0000      -1.352743       -36.8100
  15   2.0000      -1.347873       -36.6775
  16   2.0000      -1.341540       -36.5052
  17   2.0000      -1.337499       -36.3952
  18   2.0000      -0.939163       -25.5559
  19   2.0000      -0.933450       -25.4005
  20   2.0000      -0.919905       -25.0319
  21   2.0000      -0.917679       -24.9713
  22   2.0000      -0.909738       -24.7552
  23   2.0000      -0.905765       -24.6471
  24   2.0000      -0.716553       -19.4984
  25   2.0000      -0.712098       -19.3772
  26   2.0000      -0.704398       -19.1676
  27   2.0000      -0.689341       -18.7579
  28   2.0000      -0.677423       -18.4336
  29   2.0000      -0.672324       -18.2949
  30   2.0000      -0.630495       -17.1566
  31   2.0000      -0.621333       -16.9073
  32   2.0000      -0.618783       -16.8379
  33   2.0000      -0.617454       -16.8018
  34   2.0000      -0.614174       -16.7125
  35   2.0000      -0.605170       -16.4675
  36   2.0000      -0.600275       -16.3343
  37   2.0000      -0.590245       -16.0614
  38   2.0000      -0.588856       -16.0236
  39   2.0000      -0.585808       -15.9407
  40   2.0000      -0.575301       -15.6547
  41   2.0000      -0.573365       -15.6020
  42   2.0000      -0.517699       -14.0873
  43   2.0000      -0.515081       -14.0161
  44   2.0000      -0.511437       -13.9169
  45   2.0000      -0.492775       -13.4091
  46   2.0000      -0.491706       -13.3800
  47   2.0000      -0.489697       -13.3253
  48   2.0000      -0.456828       -12.4309
  49   2.0000      -0.452418       -12.3109
  50   2.0000      -0.448026       -12.1914
  51   2.0000      -0.444314       -12.0904
  52   2.0000      -0.440429       -11.9847
  53   2.0000      -0.435455       -11.8493
  54   0.0000       0.123843         3.3699
  55   0.0000       0.139936         3.8079
  56   0.0000       0.147996         4.0272
  57   0.0000       0.160778         4.3750
  58   0.0000       0.164627         4.4797

MULLIKEN ATOMIC CHARGES
-----------------------
   0 O :   -0.522668
   1 H :    0.327937
   2 C :   -0.161680
   3 H :    0.131388
   4 H :    0.113490
   5 H :    0.119475
   6 O :   -0.553103
   7 H :    0.344808
   8 C :   -0.173444
   9 H :    0.127930
  10 H :    0.141156
  11 H :    0.104760
  12 O :   -0.555291
  13 H :    0.352545
  14 C :   -0.169506
  15 H :    0.144626
  16 H :    0.114115
  17 H :    0.118477
  18 O :   -0.512331
  19 H :    0.364433
  20 C :   -0.205235
  21 H :    0.117565
  22 H :    0.130883
  23 H :    0.108197
  24 O :   -0.555768
  25 H :    0.358943
  26 C :   -0.163874
  27 H :    0.128929
  28 H :    0.108471
  29 H :    0.126030
  30 O :   -0.512527
  31 H :    0.308096
  32 C :   -0.209138
  33 H :    0.152164
  34 H :    0.124399
  35 H :    0.125746
Sum of atomic charges:   -0.0000000

LOEWDIN ATOMIC CHARGES
----------------------
   0 O :   -0.070101
   1 H :    0.123419
   2 C :   -0.365516
   3 H :    0.112317
   4 H :    0.090028
   5 H :    0.091187
   6 O :   -0.090609
   7 H :    0.149559
   8 C :   -0.377699
   9 H :    0.104592
  10 H :    0.110585
  11 H :    0.093859
  12 O :   -0.130451
  13 H :    0.212579
  14 C :   -0.396349
  15 H :    0.110221
  16 H :    0.093696
  17 H :    0.107117
  18 O :   -0.088550
  19 H :    0.190800
  20 C :   -0.413999
  21 H :    0.095408
  22 H :    0.117373
  23 H :    0.104306
  24 O :   -0.051658
  25 H :    0.176224
  26 C :   -0.408553
  27 H :    0.100048
  28 H :    0.104683
  29 H :    0.101380
  30 O :   -0.110766
  31 H :    0.160522
  32 C :   -0.358755
  33 H :    0.092757
  34 H :    0.107022
  35 H :    0.113324

  Mayer bond orders larger than 0.100000
B(  0-O ,  1-H ) :   0.8135 B(  0-O ,  2-C ) :   0.9026 B(  2-C ,  3-H ) :   0.9447
B(  2-C ,  4-H ) :   0.9438 B(  2-C ,  5-H ) :   0.9399 B(  6-O ,  7-H ) :   0.7976
B(  6-O ,  8-C ) :   0.8833 B(  8-C ,  9-H ) :   0.9437 B(  8-C , 10-H ) :   0.9462
B(  8-C , 11-H ) :   0.9358 B( 12-O , 13-H ) :   0.7947 B( 12-O , 14-C ) :   0.8724
B( 14-C , 15-H ) :   0.9298 B( 14-C , 16-H ) :   0.9371 B( 14-C , 17-H ) :   0.9444
B( 18-O , 19-H ) :   0.7882 B( 18-O , 20-C ) :   0.9312 B( 20-C , 21-H ) :   0.9369
B( 20-C , 22-H ) :   0.9372 B( 20-C , 23-H ) :   0.9233 B( 24-O , 25-H ) :   0.7792
B( 24-O , 26-C ) :   0.8912 B( 26-C , 27-H ) :   0.9440 B( 26-C , 28-H ) :   0.9470
B( 26-C , 29-H ) :   0.9347 B( 30-O , 31-H ) :   0.8202 B( 30-O , 32-C ) :   0.8687
B( 32-C , 33-H ) :   0.9349 B( 32-C , 34-H ) :   0.9372 B( 32-C , 35-H ) :   0.9309

MP2 TOTAL ENERGY:     -693.062345283 Eh
FINAL SINGLE POINT ENERGY      -693.062345283352

DIPOLE MOMENT
-------------
                                X             Y             Z
Electronic contribution:     -1.15136       0.08979       1.82027
Nuclear contribution   :      1.72256       0.05517      -2.20975
                        -----------------------------------------
Total Dipole Moment    :      0.57120       0.14496      -0.38948
                        -----------------------------------------
Magnitude (a.u.)       :      0.70638
Magnitude (Debye)      :      1.79548

Rotational constants in cm-1:     0.020052     0.012101     0.010024
Rotational constants in MHz :   601.136992   362.774630   300.498629

                             ****ORCA TERMINATED NORMALLY****
TOTAL RUN TIME: 0 days 0 hours 6 minutes 39 seconds 234 msec
