                         Program Version 4.2.0 -  RELEASE  -
|  1> ! engrad MP2 def2-TZVP TightSCF FrozenCore
|  2> %pal nprocs 24 end
|  3>
|  4> %maxcore 8000
|  5>
|  6> %scf    ConvForced true end
|  7> *xyz 0 1
|  8> C   -0.24007047757808783 -0.9617002254008579 -3.55291394782435
|  9> H   -0.2071111730369392 -0.21087039957818443 -2.8028608884433432
| 10> H   -1.2143826570901526 -0.9967703228308037 -4.018684217742461
| 11> H   0.5965177573360751 -0.7830092331001495 -4.271759546241007
| 12> C   0.14872665205090624 -2.2444202407522758 -2.9686617007670755
| 13> N   0.3162643935387644 -3.106692924573786 -2.189332733023669
| 14> C   -3.0029042157785804 -3.7885618231841534 1.1364172525798713
| 15> H   -1.9704692620442004 -4.215043230525114 1.3775961571646447
| 16> H   -3.2923924816401398 -4.10504925458691 0.11454832080822235
| 17> H   -3.7073066688780214 -4.128454713111134 1.9186621740890246
| 18> C   -3.1173105258618814 -2.291618226507998 1.1712861426289023
| 19> N   -3.3052689551183065 -1.1674459538815587 1.154592037183444
| 20> C   -0.6801685900231303 0.2866172683305287 3.0283512617959496
| 21> H   -1.3990307541700235 0.0756347617469753 3.8511083293267308
| 22> H   0.30568749731998657 -0.11681410620037845 3.221740133650508
| 23> H   -0.9716038132749487 -0.38324822005269377 2.2458039254236777
| 24> C   -0.6738688377507608 1.71938689955278 2.6168893455571043
| 25> N   -0.6789749248513902 2.8404318360296785 2.29308495226891
| 26> C   3.1785244095366494 -3.5689363203941897 -0.36688782035742795
| 27> H   4.147871562631824 -3.9495313010488085 -0.17348559047012677
| 28> H   3.2762636818843514 -2.7297923796159944 -1.023694278289026
| 29> H   2.6438067729861254 -4.342713186433111 -0.9010780585857029
| 30> C   2.5241515645849444 -3.3569534927193994 0.9581251818056847
| 31> N   2.2355525824255644 -3.199019467899855 2.041435158042342
| 32> C   1.192186622428173 3.239523846009398 -0.2508260310833804
| 33> H   0.7246543783421304 4.095439067644077 -0.6540834738219283
| 34> H   1.8073458550167758 3.685201795829357 0.5450009798394928
| 35> H   0.5494075723243738 2.566112660489411 0.22544842780862837
| 36> C   1.8514550786450723 2.5665753102437505 -1.4254520785732612
| 37> N   2.5036265278421315 2.09134024757191 -2.2722682969385835
| 38> C   -2.7825798132882755 1.4505535146608433 -0.5692387377358659
| 39> H   -2.8716682717626387 2.0745623466176695 0.32804739584902864
| 40> H   -3.556478810941 0.7561059391612686 -0.5122448708442768
| 41> H   -2.876463338479253 2.0386239049073303 -1.5024863359059164
| 42> C   -1.5026790630981472 0.6792440789752069 -0.6395335304157719
| 43> N   -0.4730268800107675 0.16572342174548083 -0.8346117092052697
| 44> *
| 45>
| 46>                          ****END OF INPUT****

CARTESIAN COORDINATES (ANGSTROEM)
---------------------------------
  C     -0.240070   -0.961700   -3.552914
  H     -0.207111   -0.210870   -2.802861
  H     -1.214383   -0.996770   -4.018684
  H      0.596518   -0.783009   -4.271760
  C      0.148727   -2.244420   -2.968662
  N      0.316264   -3.106693   -2.189333
  C     -3.002904   -3.788562    1.136417
  H     -1.970469   -4.215043    1.377596
  H     -3.292392   -4.105049    0.114548
  H     -3.707307   -4.128455    1.918662
  C     -3.117311   -2.291618    1.171286
  N     -3.305269   -1.167446    1.154592
  C     -0.680169    0.286617    3.028351
  H     -1.399031    0.075635    3.851108
  H      0.305687   -0.116814    3.221740
  H     -0.971604   -0.383248    2.245804
  C     -0.673869    1.719387    2.616889
  N     -0.678975    2.840432    2.293085
  C      3.178524   -3.568936   -0.366888
  H      4.147872   -3.949531   -0.173486
  H      3.276264   -2.729792   -1.023694
  H      2.643807   -4.342713   -0.901078
  C      2.524152   -3.356953    0.958125
  N      2.235553   -3.199019    2.041435
  C      1.192187    3.239524   -0.250826
  H      0.724654    4.095439   -0.654083
  H      1.807346    3.685202    0.545001
  H      0.549408    2.566113    0.225448
  C      1.851455    2.566575   -1.425452
  N      2.503627    2.091340   -2.272268
  C     -2.782580    1.450554   -0.569239
  H     -2.871668    2.074562    0.328047
  H     -3.556479    0.756106   -0.512245
  H     -2.876463    2.038624   -1.502486
  C     -1.502679    0.679244   -0.639534
  N     -0.473027    0.165723   -0.834612

 Total Charge           Charge          ....    0
 Multiplicity           Mult            ....    1
 Number of Electrons    NEL             ....  132
 Basis Dimension        Dim             ....  666

ORBITAL ENERGIES
----------------

  NO   OCC          E(Eh)            E(eV)
   0   2.0000     -15.579845      -423.9491
   1   2.0000     -15.577655      -423.8895
   2   2.0000     -15.575313      -423.8258
   3   2.0000     -15.565684      -423.5638
   4   2.0000     -15.558347      -423.3641
   5   2.0000     -15.551106      -423.1671
   6   2.0000     -11.303566      -307.5857
   7   2.0000     -11.293674      -307.3165
   8   2.0000     -11.291482      -307.2568
   9   2.0000     -11.290396      -307.2273
  10   2.0000     -11.276159      -306.8399
  11   2.0000     -11.274278      -306.7887
  12   2.0000     -11.272349      -306.7362
  13   2.0000     -11.269210      -306.6508
  14   2.0000     -11.261590      -306.4434
  15   2.0000     -11.257440      -306.3305
  16   2.0000     -11.256279      -306.2989
  17   2.0000     -11.253794      -306.2313
  18   2.0000      -1.244714       -33.8704
  19   2.0000      -1.222962       -33.2785
  20   2.0000      -1.220276       -33.2054
  21   2.0000      -1.219868       -33.1943
  22   2.0000      -1.203413       -32.7465
  23   2.0000      -1.196195       -32.5501
  24   2.0000      -1.032535       -28.0967
  25   2.0000      -1.030252       -28.0346
  26   2.0000      -1.023487       -27.8505
  27   2.0000      -1.020195       -27.7609
  28   2.0000      -1.016303       -27.6550
  29   2.0000      -1.013178       -27.5700
  30   2.0000      -0.702717       -19.1219
  31   2.0000      -0.693802       -18.8793
  32   2.0000      -0.693052       -18.8589
  33   2.0000      -0.679909       -18.5013
  34   2.0000      -0.679743       -18.4968
  35   2.0000      -0.678167       -18.4539
  36   2.0000      -0.638179       -17.3657
  37   2.0000      -0.632994       -17.2246
  38   2.0000      -0.630311       -17.1516
  39   2.0000      -0.625281       -17.0148
  40   2.0000      -0.618537       -16.8312
  41   2.0000      -0.616622       -16.7791
  42   2.0000      -0.615584       -16.7509
  43   2.0000      -0.611713       -16.6456
  44   2.0000      -0.607115       -16.5204
  45   2.0000      -0.603469       -16.4212
  46   2.0000      -0.595464       -16.2034
  47   2.0000      -0.582485       -15.8502
  48   2.0000      -0.569320       -15.4920
  49   2.0000      -0.563292       -15.3279
  50   2.0000      -0.552589       -15.0367
  51   2.0000      -0.547426       -14.8962
  52   2.0000      -0.546168       -14.8620
  53   2.0000      -0.539588       -14.6829
  54   2.0000      -0.487037       -13.2529
  55   2.0000      -0.485736       -13.2175
  56   2.0000      -0.470479       -12.8024
  57   2.0000      -0.465864       -12.6768
  58   2.0000      -0.463550       -12.6139
  59   2.0000      -0.461715       -12.5639
  60   2.0000      -0.460139       -12.5210
  61   2.0000      -0.458342       -12.4721
  62   2.0000      -0.448049       -12.1920
  63   2.0000      -0.443653       -12.0724
  64   2.0000      -0.440896       -11.9974
  65   2.0000      -0.439024       -11.9464
  66   0.0000       0.101577         2.7640
  67   0.0000       0.122472         3.3326
  68   0.0000       0.137004         3.7281
  69   0.0000       0.138640         3.7726
  70   0.0000       0.149888         4.0787

MULLIKEN ATOMIC CHARGES
-----------------------
   0 C :   -0.306220
   1 H :    0.199758
   2 H :    0.153893
   3 H :    0.163123
   4 C :   -0.053136
   5 N :   -0.165327
   6 C :   -0.304287
   7 H :    0.198895
   8 H :    0.178322
   9 H :    0.172034
  10 C :   -0.087492
  11 N :   -0.141727
  12 C :   -0.306097
  13 H :    0.169439
  14 H :    0.192510
  15 H :    0.188482
  16 C :   -0.093457
  17 N :   -0.144841
  18 C :   -0.293649
  19 H :    0.166722
  20 H :    0.176430
  21 H :    0.174623
  22 C :   -0.149207
  23 N :   -0.081314
  24 C :   -0.319285
  25 H :    0.157701
  26 H :    0.178843
  27 H :    0.175684
  28 C :   -0.091488
  29 N :   -0.114453
  30 C :   -0.287995
  31 H :    0.185729
  32 H :    0.181764
  33 H :    0.167690
  34 C :   -0.048705
  35 N :   -0.192964
Sum of atomic charges:   -0.0000000

LOEWDIN ATOMIC CHARGES
----------------------
   0 C :   -0.283150
   1 H :    0.143259
   2 H :    0.140302
   3 H :    0.161960
   4 C :   -0.209284
   5 N :    0.028924
   6 C :   -0.280071
   7 H :    0.163368
   8 H :    0.155938
   9 H :    0.154124
  10 C :   -0.200564
  11 N :    0.043788
  12 C :   -0.282969
  13 H :    0.153898
  14 H :    0.151440
  15 H :    0.144710
  16 C :   -0.188591
  17 N :    0.032221
  18 C :   -0.272335
  19 H :    0.139060
  20 H :    0.141530
  21 H :    0.147713
  22 C :   -0.206686
  23 N :    0.037269
  24 C :   -0.278341
  25 H :    0.139845
  26 H :    0.150062
  27 H :    0.129600
  28 C :   -0.194500
  29 N :    0.027892
  30 C :   -0.277034
  31 H :    0.152927
  32 H :    0.133962
  33 H :    0.150881
  34 C :   -0.192040
  35 N :    0.040892

  Mayer bond orders larger than 0.100000
B(  0-C ,  1-H ) :   0.9024 B(  0-C ,  2-H ) :   0.9206 B(  0-C ,  3-H ) :   0.9106
B(  0-C ,  4-C ) :   0.9411 B(  4-C ,  5-N ) :   2.7202 B(  6-C ,  7-H ) :   0.9083
B(  6-C ,  8-H ) :   0.9167 B(  6-C ,  9-H ) :   0.9156 B(  6-C , 10-C ) :   0.8856
B( 10-C , 11-N ) :   2.7470 B( 12-C , 13-H ) :   0.9101 B( 12-C , 14-H ) :   0.9114
B( 12-C , 15-H ) :   0.9088 B( 12-C , 16-C ) :   0.9133 B( 16-C , 17-N ) :   2.7457
B( 18-C , 19-H ) :   0.9198 B( 18-C , 20-H ) :   0.9177 B( 18-C , 21-H ) :   0.9158
B( 18-C , 22-C ) :   0.9252 B( 22-C , 23-N ) :   2.8420 B( 24-C , 25-H ) :   0.9213
B( 24-C , 26-H ) :   0.9240 B( 24-C , 27-H ) :   0.9133 B( 24-C , 28-C ) :   0.8998
B( 28-C , 29-N ) :   2.8181 B( 30-C , 31-H ) :   0.9079 B( 30-C , 32-H ) :   0.9231
B( 30-C , 33-H ) :   0.9185 B( 30-C , 34-C ) :   0.8919 B( 34-C , 35-N ) :   2.5981

MP2 TOTAL ENERGY:     -794.886516146 Eh
FINAL SINGLE POINT ENERGY      -794.886516145829

DIPOLE MOMENT
-------------
                                X             Y             Z
Electronic contribution:      3.05987       1.02761       0.98666
Nuclear contribution   :     -4.97562      -1.82506      -1.23901
                        -----------------------------------------
Total Dipole Moment    :     -1.91575      -0.79745      -0.25235
                        -----------------------------------------
Magnitude (a.u.)       :      2.09038
Magnitude (Debye)      :      5.31333

Rotational constants in cm-1:     0.008686     0.007785     0.006406
Rotational constants in MHz :   260.402817   233.397175   192.055988

                             ****ORCA TERMINATED NORMALLY****
TOTAL RUN TIME: 0 days 0 hours 29 minutes 18 seconds 954 msec
